 Entering Gaussian System, Link 0=g16
 Input=Atom_en_N.inp
 Output=Atom_en_N.log
 Initial command:
 /software/gaussian/G16-C.01/avx2/g16/l1.exe "/home/student5/lise/MasterProject_SPAHM-ENN/Atomization_energy/Atom_en_N/Gau-49507.inp" -scrdir="/home/student5/lise/MasterProject_SPAHM-ENN/Atomization_energy/Atom_en_N/"
 Default is to use a total of   2 processors:
                                2 via shared-memory
                                1 via Linda
 Entering Link 1 = /software/gaussian/G16-C.01/avx2/g16/l1.exe PID=     49508.
  
 Copyright (c) 1988-2019, Gaussian, Inc.  All Rights Reserved.
  
 This is part of the Gaussian(R) 16 program.  It is based on
 the Gaussian(R) 09 system (copyright 2009, Gaussian, Inc.),
 the Gaussian(R) 03 system (copyright 2003, Gaussian, Inc.),
 the Gaussian(R) 98 system (copyright 1998, Gaussian, Inc.),
 the Gaussian(R) 94 system (copyright 1995, Gaussian, Inc.),
 the Gaussian 92(TM) system (copyright 1992, Gaussian, Inc.),
 the Gaussian 90(TM) system (copyright 1990, Gaussian, Inc.),
 the Gaussian 88(TM) system (copyright 1988, Gaussian, Inc.),
 the Gaussian 86(TM) system (copyright 1986, Carnegie Mellon
 University), and the Gaussian 82(TM) system (copyright 1983,
 Carnegie Mellon University). Gaussian is a federally registered
 trademark of Gaussian, Inc.
  
 This software contains proprietary and confidential information,
 including trade secrets, belonging to Gaussian, Inc.
  
 This software is provided under written license and may be
 used, copied, transmitted, or stored only in accord with that
 written license.
  
 The following legend is applicable only to US Government
 contracts under FAR:
  
                    RESTRICTED RIGHTS LEGEND
  
 Use, reproduction and disclosure by the US Government is
 subject to restrictions as set forth in subparagraphs (a)
 and (c) of the Commercial Computer Software - Restricted
 Rights clause in FAR 52.227-19.
  
 Gaussian, Inc.
 340 Quinnipiac St., Bldg. 40, Wallingford CT 06492
  
  
 ---------------------------------------------------------------
 Warning -- This program may not be used in any manner that
 competes with the business of Gaussian, Inc. or will provide
 assistance to any competitor of Gaussian, Inc.  The licensee
 of this program is prohibited from giving any competitor of
 Gaussian, Inc. access to this program.  By using this program,
 the user acknowledges that Gaussian, Inc. is engaged in the
 business of creating and licensing software in the field of
 computational chemistry and represents and warrants to the
 licensee that it is not a competitor of Gaussian, Inc. and that
 it will not use this program in any manner prohibited above.
 ---------------------------------------------------------------
  

 Cite this work as:
 Gaussian 16, Revision C.01,
 M. J. Frisch, G. W. Trucks, H. B. Schlegel, G. E. Scuseria, 
 M. A. Robb, J. R. Cheeseman, G. Scalmani, V. Barone, 
 G. A. Petersson, H. Nakatsuji, X. Li, M. Caricato, A. V. Marenich, 
 J. Bloino, B. G. Janesko, R. Gomperts, B. Mennucci, H. P. Hratchian, 
 J. V. Ortiz, A. F. Izmaylov, J. L. Sonnenberg, D. Williams-Young, 
 F. Ding, F. Lipparini, F. Egidi, J. Goings, B. Peng, A. Petrone, 
 T. Henderson, D. Ranasinghe, V. G. Zakrzewski, J. Gao, N. Rega, 
 G. Zheng, W. Liang, M. Hada, M. Ehara, K. Toyota, R. Fukuda, 
 J. Hasegawa, M. Ishida, T. Nakajima, Y. Honda, O. Kitao, H. Nakai, 
 T. Vreven, K. Throssell, J. A. Montgomery, Jr., J. E. Peralta, 
 F. Ogliaro, M. J. Bearpark, J. J. Heyd, E. N. Brothers, K. N. Kudin, 
 V. N. Staroverov, T. A. Keith, R. Kobayashi, J. Normand, 
 K. Raghavachari, A. P. Rendell, J. C. Burant, S. S. Iyengar, 
 J. Tomasi, M. Cossi, J. M. Millam, M. Klene, C. Adamo, R. Cammi, 
 J. W. Ochterski, R. L. Martin, K. Morokuma, O. Farkas, 
 J. B. Foresman, and D. J. Fox, Gaussian, Inc., Wallingford CT, 2019.
 
 ******************************************
 Gaussian 16:  ES64L-G16RevC.01  3-Jul-2019
                17-Feb-2025 
 ******************************************
 %chk=Atom_en_N.chk
 -------------------------------------
 #p wB97XD/Def2SVP SP pop=full gfinput
 -------------------------------------
 1/38=1,172=1/1;
 2/12=2,17=6,18=5,40=1/2;
 3/5=43,7=101,11=2,24=10,25=1,30=1,74=-58/1,2,3;
 4//1;
 5/5=2,38=5/2;
 6/7=3,28=1/1;
 99/5=1,9=1/99;
 Leave Link    1 at Mon Feb 17 19:43:52 2025, MaxMem=           0 cpu:               0.2 elap:               0.1
 (Enter /software/gaussian/G16-C.01/avx2/g16/l101.exe)
 ---
 N 1
 ---
 Symbolic Z-matrix:
 Charge =  0 Multiplicity = 4
 N                     0.        0.        0. 
 
 ITRead=  0
 MicOpt= -1
 NAtoms=      1 NQM=        1 NQMF=       0 NMMI=      0 NMMIF=      0
                NMic=       0 NMicF=      0.
                    Isotopes and Nuclear Properties:
 (Nuclear quadrupole moments (NQMom) in fm**2, nuclear magnetic moments (NMagM)
  in nuclear magnetons)

  Atom         1
 IAtWgt=          14
 AtmWgt=  14.0030740
 NucSpn=           2
 AtZEff=  -0.0000000
 NQMom=    2.0440000
 NMagM=    0.4037610
 AtZNuc=   7.0000000
 Leave Link  101 at Mon Feb 17 19:43:52 2025, MaxMem=   104857600 cpu:               0.4 elap:               0.2
 (Enter /software/gaussian/G16-C.01/avx2/g16/l202.exe)
                          Input orientation:                          
 ---------------------------------------------------------------------
 Center     Atomic      Atomic             Coordinates (Angstroms)
 Number     Number       Type             X           Y           Z
 ---------------------------------------------------------------------
      1          7           0        0.000000    0.000000    0.000000
 ---------------------------------------------------------------------
 Stoichiometry    N(4)
 Framework group  OH[O(N)]
 Deg. of freedom     0
 Full point group                 OH      NOp  48
 Largest Abelian subgroup         D2H     NOp   8
 Largest concise Abelian subgroup C1      NOp   1
                         Standard orientation:                         
 ---------------------------------------------------------------------
 Center     Atomic      Atomic             Coordinates (Angstroms)
 Number     Number       Type             X           Y           Z
 ---------------------------------------------------------------------
      1          7           0        0.000000    0.000000    0.000000
 ---------------------------------------------------------------------
 Leave Link  202 at Mon Feb 17 19:43:52 2025, MaxMem=   104857600 cpu:               0.0 elap:               0.0
 (Enter /software/gaussian/G16-C.01/avx2/g16/l301.exe)
 Standard basis: def2SVP (5D, 7F)
 Ernie: Thresh=  0.10000D-02 Tol=  0.10000D-05 Strict=F.
 AO basis set in the form of general basis input (Overlap normalization):
      1 0
 S   5 1.00       0.000000000000
      0.1712841585D+04 -0.5447799580D-02
      0.2576481268D+03 -0.4062717463D-01
      0.5845824585D+02 -0.1811196225D+00
      0.1619836791D+02 -0.4684397556D+00
      0.5005260081D+01 -0.4461684629D+00
 S   1 1.00       0.000000000000
      0.5873185657D+00  0.1000000000D+01
 S   1 1.00       0.000000000000
      0.1876459225D+00  0.1000000000D+01
 P   3 1.00       0.000000000000
      0.1357147023D+02 -0.5884811697D-01
      0.2925737287D+01 -0.3202462476D+00
      0.7992775075D+00 -0.7532822652D+00
 P   1 1.00       0.000000000000
      0.2195434803D+00  0.1000000000D+01
 D   1 1.00       0.000000000000
      0.1000000000D+01  0.1000000000D+01
 ****

 There are     6 symmetry adapted cartesian basis functions of AG  symmetry.
 There are     1 symmetry adapted cartesian basis functions of B1G symmetry.
 There are     1 symmetry adapted cartesian basis functions of B2G symmetry.
 There are     1 symmetry adapted cartesian basis functions of B3G symmetry.
 There are     0 symmetry adapted cartesian basis functions of AU  symmetry.
 There are     2 symmetry adapted cartesian basis functions of B1U symmetry.
 There are     2 symmetry adapted cartesian basis functions of B2U symmetry.
 There are     2 symmetry adapted cartesian basis functions of B3U symmetry.
 There are     5 symmetry adapted basis functions of AG  symmetry.
 There are     1 symmetry adapted basis functions of B1G symmetry.
 There are     1 symmetry adapted basis functions of B2G symmetry.
 There are     1 symmetry adapted basis functions of B3G symmetry.
 There are     0 symmetry adapted basis functions of AU  symmetry.
 There are     2 symmetry adapted basis functions of B1U symmetry.
 There are     2 symmetry adapted basis functions of B2U symmetry.
 There are     2 symmetry adapted basis functions of B3U symmetry.
    14 basis functions,    25 primitive gaussians,    15 cartesian basis functions
     5 alpha electrons        2 beta electrons
       nuclear repulsion energy         0.0000000000 Hartrees.
 IExCor= 4639 DFT=T Ex+Corr=wB97XD ExCW=0 ScaHFX=  1.000000
 ScaDFX=  1.000000  1.000000  1.000000  1.000000 ScalE2=  1.000000  1.000000
 IRadAn=      5 IRanWt=     -1 IRanGd=            0 ICorTp=0 IEmpDi=121
 HFx  wShort=  0.000000 wLong=  0.200000 cFull=  0.222036 cShort=  0.000000 cLong=  0.777964
 DFx  wShort=  0.000000 wLong=  0.200000 cFull=  0.000000 cShort=  0.000000 cLong=  1.000000
 NAtoms=    1 NActive=    1 NUniq=    1 SFac= 1.00D+00 NAtFMM=   60 NAOKFM=F Big=F
 Integral buffers will be    131072 words long.
 Raffenetti 2 integral format.
 Two-electron integral symmetry is turned on.
 R6Disp:  Grimme-D2 Dispersion energy=        0.0000000000 Hartrees.
 Nuclear repulsion after empirical dispersion term =        0.0000000000 Hartrees.
 Leave Link  301 at Mon Feb 17 19:43:52 2025, MaxMem=   104857600 cpu:               0.1 elap:               0.1
 (Enter /software/gaussian/G16-C.01/avx2/g16/l302.exe)
 NPDir=0 NMtPBC=     1 NCelOv=     1 NCel=       1 NClECP=     1 NCelD=      1
         NCelK=      1 NCelE2=     1 NClLst=     1 CellRange=     0.0.
 One-electron integrals computed using PRISM.
 One-electron integral symmetry used in STVInt
  48 Symmetry operations used in ECPInt.
 ECPInt:  NShTT=      21 NPrTT=      91 LenC2=      22 LenP2D=      91.
 LDataN:  DoStor=T MaxTD1= 4 Len=   56
 NBasis=    14 RedAO= T EigKep=  1.85D-01  NBF=     5     1     1     1     0     2     2     2
 NBsUse=    14 1.00D-06 EigRej= -1.00D+00 NBFU=     5     1     1     1     0     2     2     2
 Precomputing XC quadrature grid using
 IXCGrd= 4 IRadAn=           5 IRanWt=          -1 IRanGd=           0 AccXCQ= 0.00D+00.
 Generated NRdTot=       0 NPtTot=           0 NUsed=           0 NTot=          32
 NSgBfM=    15    15    15    15    15 MxSgAt=     1 MxSgA2=     1.
 Leave Link  302 at Mon Feb 17 19:43:52 2025, MaxMem=   104857600 cpu:               0.3 elap:               0.2
 (Enter /software/gaussian/G16-C.01/avx2/g16/l303.exe)
 DipDrv:  MaxL=1.
 Leave Link  303 at Mon Feb 17 19:43:53 2025, MaxMem=   104857600 cpu:               0.1 elap:               0.0
 (Enter /software/gaussian/G16-C.01/avx2/g16/l401.exe)
 ExpMin= 1.88D-01 ExpMax= 1.71D+03 ExpMxC= 2.58D+02 IAcc=3 IRadAn=         5 AccDes= 0.00D+00
 Harris functional with IExCor= 4639 and IRadAn=       5 diagonalized for initial guess.
 HarFok:  IExCor= 4639 AccDes= 0.00D+00 IRadAn=         5 IDoV= 1 UseB2=F ITyADJ=14
 ICtDFT=  3500011 ScaDFX=  1.000000  1.000000  1.000000  1.000000
 FoFCou: FMM=F IPFlag=           0 FMFlag=      100000 FMFlg1=           0
         NFxFlg=           0 DoJE=T BraDBF=F KetDBF=T FulRan=T
         wScrn=  0.000000 ICntrl=       500 IOpCl=  0 I1Cent=   200000004 NGrid=           0
         NMat0=    1 NMatS0=      1 NMatT0=    0 NMatD0=    1 NMtDS0=    0 NMtDT0=    0
 Petite list used in FoFCou.
 Harris En= -52.4043703203523    
 JPrj=0 DoOrth=F DoCkMO=F.
 Initial guess orbital symmetries:
 Alpha Orbitals:
       Occupied  (A1G) (A1G) (T1U) (T1U) (T1U)
       Virtual   (A1G) (T1U) (T1U) (T1U) (T2G) (T2G) (T2G) (EG)
                 (EG)
 Beta  Orbitals:
       Occupied  (A1G) (A1G)
       Virtual   (T1U) (T1U) (T1U) (A1G) (T1U) (T1U) (T1U) (T2G)
                 (T2G) (T2G) (EG) (EG)
 The electronic state of the initial guess is 4-A1G.
 Initial guess <Sx>= 0.0000 <Sy>= 0.0000 <Sz>= 1.5000 <S**2>= 3.7500 S= 1.5000
 Leave Link  401 at Mon Feb 17 19:43:53 2025, MaxMem=   104857600 cpu:               0.4 elap:               0.2
 (Enter /software/gaussian/G16-C.01/avx2/g16/l502.exe)
 Keep R1 and R2 ints in memory in symmetry-blocked form, NReq=1740521.
 FoFCou: FMM=F IPFlag=           0 FMFlag=           0 FMFlg1=           0
         NFxFlg=           0 DoJE=F BraDBF=F KetDBF=F FulRan=T
         wScrn=  0.000000 ICntrl=       600 IOpCl=  0 I1Cent=           0 NGrid=           0
         NMat0=    1 NMatS0=    105 NMatT0=    0 NMatD0=    1 NMtDS0=    0 NMtDT0=    0
 Petite list used in FoFCou.
 UHF open shell SCF:
 Using DIIS extrapolation, IDIIS=  1040.
 NGot=   104857600 LenX=   104852321 LenY=   104851439
 Requested convergence on RMS density matrix=1.00D-08 within 128 cycles.
 Requested convergence on MAX density matrix=1.00D-06.
 Requested convergence on             energy=1.00D-06.
 No special actions if energy rises.
 Integral accuracy reduced to 1.0D-05 until final iterations.

 Cycle   1  Pass 0  IDiag  1:
 E= -54.4465674799829    
 DIIS: error= 8.83D-02 at cycle   1 NSaved=   1.
 NSaved= 1 IEnMin= 1 EnMin= -54.4465674799829     IErMin= 1 ErrMin= 8.83D-02
 ErrMax= 8.83D-02  0.00D+00 EMaxC= 1.00D-01 BMatC= 3.11D-01 BMatP= 3.11D-01
 IDIUse=3 WtCom= 1.17D-01 WtEn= 8.83D-01
 Coeff-Com:  0.100D+01
 Coeff-En:   0.100D+01
 Coeff:      0.100D+01
 Gap=     1.039 Goal=   None    Shift=    0.000
 Gap=     0.683 Goal=   None    Shift=    0.000
 GapD=    0.683 DampG=2.000 DampE=0.500 DampFc=1.0000 IDamp=-1.
 RMSDP=2.76D-02 MaxDP=2.18D-01              OVMax= 1.05D-01

 Cycle   2  Pass 0  IDiag  1:
 E= -54.5145405744161     Delta-E=       -0.067973094433 Rises=F Damp=F
 DIIS: error= 2.69D-02 at cycle   2 NSaved=   2.
 NSaved= 2 IEnMin= 2 EnMin= -54.5145405744161     IErMin= 2 ErrMin= 2.69D-02
 ErrMax= 2.69D-02  0.00D+00 EMaxC= 1.00D-01 BMatC= 2.66D-02 BMatP= 3.11D-01
 IDIUse=3 WtCom= 7.31D-01 WtEn= 2.69D-01
 Coeff-Com:  0.215D+00 0.785D+00
 Coeff-En:   0.000D+00 0.100D+01
 Coeff:      0.157D+00 0.843D+00
 Gap=     1.030 Goal=   None    Shift=    0.000
 Gap=     0.683 Goal=   None    Shift=    0.000
 RMSDP=8.51D-03 MaxDP=9.13D-02 DE=-6.80D-02 OVMax= 4.46D-02

 Cycle   3  Pass 0  IDiag  1:
 E= -54.5222513852156     Delta-E=       -0.007710810799 Rises=F Damp=F
 DIIS: error= 3.52D-03 at cycle   3 NSaved=   3.
 NSaved= 3 IEnMin= 3 EnMin= -54.5222513852156     IErMin= 3 ErrMin= 3.52D-03
 ErrMax= 3.52D-03  0.00D+00 EMaxC= 1.00D-01 BMatC= 4.47D-04 BMatP= 2.66D-02
 IDIUse=3 WtCom= 9.65D-01 WtEn= 3.52D-02
 Coeff-Com: -0.581D-01-0.801D-01 0.114D+01
 Coeff-En:   0.000D+00 0.000D+00 0.100D+01
 Coeff:     -0.560D-01-0.773D-01 0.113D+01
 Gap=     1.038 Goal=   None    Shift=    0.000
 Gap=     0.675 Goal=   None    Shift=    0.000
 RMSDP=1.20D-03 MaxDP=9.99D-03 DE=-7.71D-03 OVMax= 4.57D-03

 Cycle   4  Pass 0  IDiag  1:
 E= -54.5224201255970     Delta-E=       -0.000168740381 Rises=F Damp=F
 DIIS: error= 5.95D-04 at cycle   4 NSaved=   4.
 NSaved= 4 IEnMin= 4 EnMin= -54.5224201255970     IErMin= 4 ErrMin= 5.95D-04
 ErrMax= 5.95D-04  0.00D+00 EMaxC= 1.00D-01 BMatC= 4.42D-06 BMatP= 4.47D-04
 IDIUse=3 WtCom= 9.94D-01 WtEn= 5.95D-03
 Coeff-Com:  0.323D-02-0.115D-01-0.175D+00 0.118D+01
 Coeff-En:   0.000D+00 0.000D+00 0.000D+00 0.100D+01
 Coeff:      0.321D-02-0.114D-01-0.174D+00 0.118D+01
 Gap=     1.038 Goal=   None    Shift=    0.000
 Gap=     0.675 Goal=   None    Shift=    0.000
 RMSDP=2.06D-04 MaxDP=2.75D-03 DE=-1.69D-04 OVMax= 1.44D-03

 Cycle   5  Pass 0  IDiag  1:
 E= -54.5224223918484     Delta-E=       -0.000002266251 Rises=F Damp=F
 DIIS: error= 1.07D-05 at cycle   5 NSaved=   5.
 NSaved= 5 IEnMin= 5 EnMin= -54.5224223918484     IErMin= 5 ErrMin= 1.07D-05
 ErrMax= 1.07D-05  0.00D+00 EMaxC= 1.00D-01 BMatC= 1.85D-09 BMatP= 4.42D-06
 IDIUse=1 WtCom= 1.00D+00 WtEn= 0.00D+00
 Coeff-Com: -0.684D-03 0.227D-02 0.364D-01-0.248D+00 0.121D+01
 Coeff:     -0.684D-03 0.227D-02 0.364D-01-0.248D+00 0.121D+01
 Gap=     1.038 Goal=   None    Shift=    0.000
 Gap=     0.675 Goal=   None    Shift=    0.000
 RMSDP=3.52D-06 MaxDP=4.53D-05 DE=-2.27D-06 OVMax= 2.02D-05

 Initial convergence to 1.0D-05 achieved.  Increase integral accuracy.
 Cycle   6  Pass 1  IDiag  1:
 E= -54.5224226420551     Delta-E=       -0.000000250207 Rises=F Damp=F
 DIIS: error= 3.15D-06 at cycle   1 NSaved=   1.
 NSaved= 1 IEnMin= 1 EnMin= -54.5224226420551     IErMin= 1 ErrMin= 3.15D-06
 ErrMax= 3.15D-06  0.00D+00 EMaxC= 1.00D-01 BMatC= 8.66D-11 BMatP= 8.66D-11
 IDIUse=1 WtCom= 1.00D+00 WtEn= 0.00D+00
 Coeff-Com:  0.100D+01
 Coeff:      0.100D+01
 Gap=     1.038 Goal=   None    Shift=    0.000
 Gap=     0.675 Goal=   None    Shift=    0.000
 RMSDP=3.52D-06 MaxDP=4.53D-05 DE=-2.50D-07 OVMax= 1.55D-06

 Cycle   7  Pass 1  IDiag  1:
 E= -54.5224226420616     Delta-E=       -0.000000000006 Rises=F Damp=F
 DIIS: error= 1.81D-07 at cycle   2 NSaved=   2.
 NSaved= 2 IEnMin= 2 EnMin= -54.5224226420616     IErMin= 2 ErrMin= 1.81D-07
 ErrMax= 1.81D-07  0.00D+00 EMaxC= 1.00D-01 BMatC= 1.07D-12 BMatP= 8.66D-11
 IDIUse=1 WtCom= 1.00D+00 WtEn= 0.00D+00
 Coeff-Com:  0.807D-02 0.992D+00
 Coeff:      0.807D-02 0.992D+00
 Gap=     1.038 Goal=   None    Shift=    0.000
 Gap=     0.675 Goal=   None    Shift=    0.000
 RMSDP=5.95D-08 MaxDP=6.31D-07 DE=-6.48D-12 OVMax= 2.82D-07

 Cycle   8  Pass 1  IDiag  1:
 E= -54.5224226420620     Delta-E=       -0.000000000000 Rises=F Damp=F
 DIIS: error= 7.99D-08 at cycle   3 NSaved=   3.
 NSaved= 3 IEnMin= 3 EnMin= -54.5224226420620     IErMin= 3 ErrMin= 7.99D-08
 ErrMax= 7.99D-08  0.00D+00 EMaxC= 1.00D-01 BMatC= 1.01D-13 BMatP= 1.07D-12
 IDIUse=1 WtCom= 1.00D+00 WtEn= 0.00D+00
 Coeff-Com: -0.129D-01 0.119D+00 0.894D+00
 Coeff:     -0.129D-01 0.119D+00 0.894D+00
 Gap=     1.038 Goal=   None    Shift=    0.000
 Gap=     0.675 Goal=   None    Shift=    0.000
 RMSDP=1.94D-08 MaxDP=2.58D-07 DE=-3.91D-13 OVMax= 1.35D-07

 Cycle   9  Pass 1  IDiag  1:
 E= -54.5224226420620     Delta-E=       -0.000000000000 Rises=F Damp=F
 DIIS: error= 1.62D-08 at cycle   4 NSaved=   4.
 NSaved= 4 IEnMin= 4 EnMin= -54.5224226420620     IErMin= 4 ErrMin= 1.62D-08
 ErrMax= 1.62D-08  0.00D+00 EMaxC= 1.00D-01 BMatC= 5.47D-15 BMatP= 1.01D-13
 IDIUse=1 WtCom= 1.00D+00 WtEn= 0.00D+00
 Coeff-Com:  0.281D-02-0.868D-01-0.166D+00 0.125D+01
 Coeff:      0.281D-02-0.868D-01-0.166D+00 0.125D+01
 Gap=     1.038 Goal=   None    Shift=    0.000
 Gap=     0.675 Goal=   None    Shift=    0.000
 RMSDP=6.53D-09 MaxDP=7.47D-08 DE=-2.13D-14 OVMax= 3.90D-08

 SCF Done:  E(UwB97XD) =  -54.5224226421     A.U. after    9 cycles
            NFock=  9  Conv=0.65D-08     -V/T= 2.0042
 <Sx>= 0.0000 <Sy>= 0.0000 <Sz>= 1.5000 <S**2>= 3.7553 S= 1.5013
 <L.S>=  0.00000000000    
 KE= 5.429334004616D+01 PE=-1.281799138938D+02 EE= 1.936415120561D+01
 Annihilation of the first spin contaminant:
 S**2 before annihilation     3.7553,   after     3.7500
 Leave Link  502 at Mon Feb 17 19:43:53 2025, MaxMem=   104857600 cpu:               0.7 elap:               0.4
 (Enter /software/gaussian/G16-C.01/avx2/g16/l601.exe)
 Copying SCF densities to generalized density rwf, IOpCl= 1 IROHF=0.

 **********************************************************************

            Population analysis using the SCF Density.

 **********************************************************************

 Orbital symmetries:
 Alpha Orbitals:
       Occupied  (A1G) (A1G) (T1U) (T1U) (T1U)
       Virtual   (A1G) (T1U) (T1U) (T1U) (T2G) (T2G) (T2G) (EG)
                 (EG)
 Beta  Orbitals:
       Occupied  (A1G) (A1G)
       Virtual   (T1U) (T1U) (T1U) (A1G) (T1U) (T1U) (T1U) (T2G)
                 (T2G) (T2G) (EG) (EG)
 The electronic state is 4-A1G.
 Alpha  occ. eigenvalues --  -14.54605  -0.89290  -0.43993  -0.43993  -0.43993
 Alpha virt. eigenvalues --    0.59781   0.75662   0.75662   0.75662   2.12379
 Alpha virt. eigenvalues --    2.12379   2.12379   2.12379   2.12379
  Beta  occ. eigenvalues --  -14.49224  -0.67113
  Beta virt. eigenvalues --    0.00371   0.00371   0.00371   0.68209   0.88538
  Beta virt. eigenvalues --    0.88538   0.88538   2.30683   2.30683   2.30683
  Beta virt. eigenvalues --    2.30683   2.30683
     Alpha Molecular Orbital Coefficients:
                           1         2         3         4         5
                       (A1G)--O  (A1G)--O  (T1U)--O  (T1U)--O  (T1U)--O
     Eigenvalues --   -14.54605  -0.89290  -0.43993  -0.43993  -0.43993
   1 1   N  1S          0.98926   0.31784   0.00000   0.00000   0.00000
   2        2S         -0.03705   0.69602   0.00000   0.00000   0.00000
   3        3S          0.01315   0.40055   0.00000   0.00000   0.00000
   4        4PX         0.00000   0.00000   0.00000   0.00000   0.68765
   5        4PY         0.00000   0.00000   0.00000   0.68765   0.00000
   6        4PZ         0.00000   0.00000   0.68765   0.00000   0.00000
   7        5PX         0.00000   0.00000   0.00000   0.00000  -0.45054
   8        5PY         0.00000   0.00000   0.00000  -0.45054   0.00000
   9        5PZ         0.00000   0.00000  -0.45054   0.00000   0.00000
  10        6D 0        0.00000   0.00000   0.00000   0.00000   0.00000
  11        6D+1        0.00000   0.00000   0.00000   0.00000   0.00000
  12        6D-1        0.00000   0.00000   0.00000   0.00000   0.00000
  13        6D+2        0.00000  -0.00000   0.00000   0.00000   0.00000
  14        6D-2        0.00000   0.00000   0.00000   0.00000   0.00000
                           6         7         8         9        10
                       (A1G)--V  (T1U)--V  (T1U)--V  (T1U)--V  (T2G)--V
     Eigenvalues --     0.59781   0.75662   0.75662   0.75662   2.12379
   1 1   N  1S         -0.30236   0.00000   0.00000   0.00000   0.00000
   2        2S         -1.61051   0.00000   0.00000   0.00000   0.00000
   3        3S          1.62450   0.00000   0.00000   0.00000   0.00000
   4        4PX         0.00000   0.00000   0.00000   0.95074   0.00000
   5        4PY         0.00000   0.00000   0.95074   0.00000   0.00000
   6        4PZ         0.00000   0.95074   0.00000   0.00000   0.00000
   7        5PX         0.00000   0.00000   0.00000   1.08342   0.00000
   8        5PY         0.00000   0.00000   1.08342   0.00000   0.00000
   9        5PZ         0.00000   1.08342   0.00000   0.00000   0.00000
  10        6D 0       -0.00000   0.00000   0.00000   0.00000   0.00000
  11        6D+1        0.00000   0.00000   0.00000   0.00000   0.00000
  12        6D-1        0.00000   0.00000   0.00000   0.00000   0.00000
  13        6D+2       -0.00000   0.00000   0.00000   0.00000   0.00000
  14        6D-2        0.00000   0.00000   0.00000   0.00000   1.00000
                          11        12        13        14
                       (T2G)--V  (T2G)--V   (EG)--V   (EG)--V
     Eigenvalues --     2.12379   2.12379   2.12379   2.12379
   1 1   N  1S          0.00000   0.00000  -0.00000  -0.00000
   2        2S          0.00000   0.00000  -0.00000  -0.00000
   3        3S          0.00000   0.00000   0.00000   0.00000
   4        4PX         0.00000   0.00000   0.00000   0.00000
   5        4PY         0.00000   0.00000   0.00000   0.00000
   6        4PZ         0.00000   0.00000   0.00000   0.00000
   7        5PX         0.00000   0.00000   0.00000   0.00000
   8        5PY         0.00000   0.00000   0.00000   0.00000
   9        5PZ         0.00000   0.00000   0.00000   0.00000
  10        6D 0        0.00000   0.00000   0.99959  -0.02880
  11        6D+1        1.00000   0.00000   0.00000   0.00000
  12        6D-1        0.00000   1.00000   0.00000   0.00000
  13        6D+2        0.00000   0.00000   0.02880   0.99959
  14        6D-2        0.00000   0.00000   0.00000   0.00000
     Beta Molecular Orbital Coefficients:
                           1         2         3         4         5
                       (A1G)--O  (A1G)--O  (T1U)--V  (T1U)--V  (T1U)--V
     Eigenvalues --   -14.49224  -0.67113   0.00371   0.00371   0.00371
   1 1   N  1S          0.99131   0.29132   0.00000   0.00000   0.00000
   2        2S         -0.03008   0.57741   0.00000   0.00000   0.00000
   3        3S          0.01050   0.51737   0.00000   0.00000   0.00000
   4        4PX         0.00000   0.00000   0.00000   0.00000  -0.53756
   5        4PY         0.00000   0.00000   0.00000  -0.53756   0.00000
   6        4PZ         0.00000   0.00000  -0.53756   0.00000   0.00000
   7        5PX         0.00000   0.00000   0.00000   0.00000   0.60767
   8        5PY         0.00000   0.00000   0.00000   0.60767   0.00000
   9        5PZ         0.00000   0.00000   0.60767   0.00000   0.00000
  10        6D 0        0.00000  -0.00000   0.00000   0.00000   0.00000
  11        6D+1        0.00000   0.00000   0.00000   0.00000   0.00000
  12        6D-1        0.00000   0.00000   0.00000   0.00000   0.00000
  13        6D+2       -0.00000   0.00000   0.00000   0.00000   0.00000
  14        6D-2        0.00000   0.00000   0.00000   0.00000   0.00000
                           6         7         8         9        10
                       (A1G)--V  (T1U)--V  (T1U)--V  (T1U)--V  (T2G)--V
     Eigenvalues --     0.68209   0.88538   0.88538   0.88538   2.30683
   1 1   N  1S          0.32177   0.00000   0.00000   0.00000   0.00000
   2        2S          1.65688   0.00000   0.00000   0.00000   0.00000
   3        3S         -1.59118   0.00000   0.00000   0.00000   0.00000
   4        4PX         0.00000   0.00000   0.00000   1.04298   0.00000
   5        4PY         0.00000   0.00000   1.04298   0.00000   0.00000
   6        4PZ         0.00000   1.04298   0.00000   0.00000   0.00000
   7        5PX         0.00000   0.00000   0.00000   1.00375   0.00000
   8        5PY         0.00000   0.00000   1.00375   0.00000   0.00000
   9        5PZ         0.00000   1.00375   0.00000   0.00000   0.00000
  10        6D 0        0.00000   0.00000   0.00000   0.00000   0.00000
  11        6D+1        0.00000   0.00000   0.00000   0.00000   0.00000
  12        6D-1        0.00000   0.00000   0.00000   0.00000   0.00000
  13        6D+2        0.00000   0.00000   0.00000   0.00000   0.00000
  14        6D-2        0.00000   0.00000   0.00000   0.00000   1.00000
                          11        12        13        14
                       (T2G)--V  (T2G)--V   (EG)--V   (EG)--V
     Eigenvalues --     2.30683   2.30683   2.30683   2.30683
   1 1   N  1S          0.00000   0.00000  -0.00000  -0.00000
   2        2S          0.00000   0.00000  -0.00000  -0.00000
   3        3S          0.00000   0.00000   0.00000   0.00000
   4        4PX         0.00000   0.00000   0.00000   0.00000
   5        4PY         0.00000   0.00000   0.00000   0.00000
   6        4PZ         0.00000   0.00000   0.00000   0.00000
   7        5PX         0.00000   0.00000   0.00000   0.00000
   8        5PY         0.00000   0.00000   0.00000   0.00000
   9        5PZ         0.00000   0.00000   0.00000   0.00000
  10        6D 0        0.00000   0.00000  -0.00168   1.00000
  11        6D+1        1.00000   0.00000   0.00000   0.00000
  12        6D-1        0.00000   1.00000   0.00000   0.00000
  13        6D+2        0.00000   0.00000   1.00000   0.00168
  14        6D-2        0.00000   0.00000   0.00000   0.00000
     Alpha Density Matrix:
                           1         2         3         4         5
   1 1   N  1S          1.07967
   2        2S          0.18457   0.48582
   3        3S          0.14032   0.27830   0.16061
   4        4PX         0.00000   0.00000   0.00000   0.47287
   5        4PY         0.00000   0.00000   0.00000   0.00000   0.47287
   6        4PZ         0.00000   0.00000   0.00000   0.00000  -0.00000
   7        5PX         0.00000   0.00000   0.00000  -0.30981   0.00000
   8        5PY         0.00000   0.00000   0.00000   0.00000  -0.30981
   9        5PZ         0.00000   0.00000   0.00000   0.00000  -0.00000
  10        6D 0        0.00000   0.00000  -0.00000   0.00000   0.00000
  11        6D+1       -0.00000   0.00000   0.00000   0.00000   0.00000
  12        6D-1       -0.00000  -0.00000  -0.00000   0.00000   0.00000
  13        6D+2       -0.00000   0.00000   0.00000   0.00000   0.00000
  14        6D-2       -0.00000   0.00000   0.00000   0.00000   0.00000
                           6         7         8         9        10
   6        4PZ         0.47287
   7        5PX         0.00000   0.20298
   8        5PY        -0.00000  -0.00000   0.20298
   9        5PZ        -0.30981  -0.00000   0.00000   0.20298
  10        6D 0        0.00000   0.00000   0.00000   0.00000   0.00000
  11        6D+1        0.00000   0.00000   0.00000   0.00000   0.00000
  12        6D-1        0.00000   0.00000   0.00000   0.00000  -0.00000
  13        6D+2        0.00000   0.00000   0.00000   0.00000   0.00000
  14        6D-2        0.00000   0.00000   0.00000   0.00000   0.00000
                          11        12        13        14
  11        6D+1        0.00000
  12        6D-1       -0.00000   0.00000
  13        6D+2       -0.00000  -0.00000   0.00000
  14        6D-2        0.00000  -0.00000   0.00000   0.00000
     Beta Density Matrix:
                           1         2         3         4         5
   1 1   N  1S          1.06755
   2        2S          0.13839   0.33431
   3        3S          0.16113   0.29842   0.26778
   4        4PX         0.00000   0.00000   0.00000   0.00000
   5        4PY         0.00000   0.00000   0.00000   0.00000   0.00000
   6        4PZ         0.00000   0.00000   0.00000   0.00000   0.00000
   7        5PX         0.00000   0.00000   0.00000   0.00000   0.00000
   8        5PY         0.00000   0.00000   0.00000   0.00000   0.00000
   9        5PZ         0.00000   0.00000   0.00000   0.00000   0.00000
  10        6D 0       -0.00000   0.00000   0.00000   0.00000   0.00000
  11        6D+1        0.00000  -0.00000  -0.00000   0.00000   0.00000
  12        6D-1       -0.00000   0.00000   0.00000   0.00000   0.00000
  13        6D+2        0.00000  -0.00000  -0.00000   0.00000   0.00000
  14        6D-2        0.00000  -0.00000  -0.00000   0.00000   0.00000
                           6         7         8         9        10
   6        4PZ         0.00000
   7        5PX         0.00000   0.00000
   8        5PY         0.00000   0.00000   0.00000
   9        5PZ         0.00000   0.00000   0.00000   0.00000
  10        6D 0        0.00000   0.00000   0.00000   0.00000   0.00000
  11        6D+1        0.00000   0.00000   0.00000   0.00000   0.00000
  12        6D-1        0.00000   0.00000   0.00000   0.00000  -0.00000
  13        6D+2        0.00000   0.00000   0.00000   0.00000   0.00000
  14        6D-2        0.00000   0.00000   0.00000   0.00000   0.00000
                          11        12        13        14
  11        6D+1        0.00000
  12        6D-1        0.00000   0.00000
  13        6D+2       -0.00000  -0.00000   0.00000
  14        6D-2        0.00000  -0.00000   0.00000   0.00000
    Full Mulliken population analysis:
                           1         2         3         4         5
   1 1   N  1S          2.14722
   2        2S         -0.10846   0.82013
   3        3S         -0.04676   0.45735   0.42839
   4        4PX         0.00000   0.00000   0.00000   0.47287
   5        4PY         0.00000   0.00000   0.00000   0.00000   0.47287
   6        4PZ         0.00000   0.00000   0.00000  -0.00000  -0.00000
   7        5PX         0.00000   0.00000   0.00000   0.16207   0.00000
   8        5PY         0.00000   0.00000   0.00000   0.00000   0.16207
   9        5PZ         0.00000   0.00000   0.00000   0.00000   0.00000
  10        6D 0        0.00000   0.00000   0.00000   0.00000   0.00000
  11        6D+1        0.00000  -0.00000  -0.00000   0.00000   0.00000
  12        6D-1        0.00000  -0.00000  -0.00000   0.00000   0.00000
  13        6D+2        0.00000   0.00000   0.00000   0.00000   0.00000
  14        6D-2        0.00000  -0.00000   0.00000   0.00000   0.00000
                           6         7         8         9        10
   6        4PZ         0.47287
   7        5PX         0.00000   0.20298
   8        5PY         0.00000   0.00000   0.20298
   9        5PZ         0.16207   0.00000   0.00000   0.20298
  10        6D 0        0.00000   0.00000   0.00000   0.00000   0.00000
  11        6D+1        0.00000   0.00000   0.00000   0.00000  -0.00000
  12        6D-1        0.00000   0.00000   0.00000   0.00000  -0.00000
  13        6D+2        0.00000   0.00000   0.00000   0.00000  -0.00000
  14        6D-2        0.00000   0.00000   0.00000   0.00000  -0.00000
                          11        12        13        14
  11        6D+1        0.00000
  12        6D-1        0.00000   0.00000
  13        6D+2       -0.00000  -0.00000   0.00000
  14        6D-2        0.00000   0.00000   0.00000   0.00000
     Gross orbital populations:
                         Total     Alpha     Beta      Spin
   1 1   N  1S          1.99200   0.99592   0.99608  -0.00017
   2        2S          1.16902   0.64454   0.52449   0.12005
   3        3S          0.83898   0.35955   0.47943  -0.11989
   4        4PX         0.63494   0.63494   0.00000   0.63494
   5        4PY         0.63494   0.63494   0.00000   0.63494
   6        4PZ         0.63494   0.63494   0.00000   0.63494
   7        5PX         0.36506   0.36506   0.00000   0.36506
   8        5PY         0.36506   0.36506   0.00000   0.36506
   9        5PZ         0.36506   0.36506   0.00000   0.36506
  10        6D 0        0.00000   0.00000   0.00000   0.00000
  11        6D+1        0.00000   0.00000   0.00000   0.00000
  12        6D-1        0.00000   0.00000   0.00000  -0.00000
  13        6D+2        0.00000   0.00000   0.00000   0.00000
  14        6D-2        0.00000   0.00000   0.00000  -0.00000
          Condensed to atoms (all electrons):
               1
     1  N    7.000000
          Atomic-Atomic Spin Densities.
               1
     1  N    3.000000
 Mulliken charges and spin densities:
               1          2
     1  N    0.000000   3.000000
 Sum of Mulliken charges =   0.00000   3.00000
 Mulliken charges and spin densities with hydrogens summed into heavy atoms:
               1          2
     1  N    0.000000   3.000000
 Electronic spatial extent (au):  <R**2>=             11.8835
 Charge=             -0.0000 electrons
 Dipole moment (field-independent basis, Debye):
    X=              0.0000    Y=              0.0000    Z=              0.0000  Tot=              0.0000
 Quadrupole moment (field-independent basis, Debye-Ang):
   XX=             -5.3279   YY=             -5.3279   ZZ=             -5.3279
   XY=              0.0000   XZ=              0.0000   YZ=             -0.0000
 Traceless Quadrupole moment (field-independent basis, Debye-Ang):
   XX=              0.0000   YY=              0.0000   ZZ=              0.0000
   XY=              0.0000   XZ=              0.0000   YZ=             -0.0000
 Octapole moment (field-independent basis, Debye-Ang**2):
  XXX=              0.0000  YYY=              0.0000  ZZZ=              0.0000  XYY=              0.0000
  XXY=              0.0000  XXZ=              0.0000  XZZ=              0.0000  YZZ=              0.0000
  YYZ=              0.0000  XYZ=              0.0000
 Hexadecapole moment (field-independent basis, Debye-Ang**3):
 XXXX=             -4.3221 YYYY=             -4.3221 ZZZZ=             -4.3221 XXXY=              0.0000
 XXXZ=              0.0000 YYYX=              0.0000 YYYZ=             -0.0000 ZZZX=              0.0000
 ZZZY=             -0.0000 XXYY=             -1.4407 XXZZ=             -1.4407 YYZZ=             -1.4407
 XXYZ=             -0.0000 YYXZ=              0.0000 ZZXY=              0.0000
 N-N= 0.000000000000D+00 E-N=-1.281799138055D+02  KE= 5.429334004616D+01
 Symmetry AG   KE= 4.855593962489D+01
 Symmetry B1G  KE= 3.490541395684D-62
 Symmetry B2G  KE= 3.313665899875D-62
 Symmetry B3G  KE= 4.100935020158D-62
 Symmetry AU   KE= 0.000000000000D+00
 Symmetry B1U  KE= 1.912466807091D+00
 Symmetry B2U  KE= 1.912466807091D+00
 Symmetry B3U  KE= 1.912466807091D+00
 Symmetry AG   SP= 3.918904665895D-15
 Symmetry B1G  SP=-4.822683725190D-65
 Symmetry B2G  SP= 2.074287922223D-63
 Symmetry B3G  SP=-1.186444314488D-63
 Symmetry AU   SP= 0.000000000000D+00
 Symmetry B1U  SP= 1.000000000000D+00
 Symmetry B2U  SP= 1.000000000000D+00
 Symmetry B3U  SP= 1.000000000000D+00
 Orbital energies and kinetic energies (alpha):
                                 1                 2
   1         (A1G)--O        -14.546046         21.790914
   2         (A1G)--O         -0.892901          2.643130
   3         (T1U)--O         -0.439934          1.912467
   4         (T1U)--O         -0.439934          1.912467
   5         (T1U)--O         -0.439934          1.912467
   6         (A1G)--V          0.597811          2.841841
   7         (T1U)--V          0.756620          2.593257
   8         (T1U)--V          0.756620          2.593257
   9         (T1U)--V          0.756620          2.593257
  10         (T2G)--V          2.123788          3.500000
  11         (T2G)--V          2.123788          3.500000
  12         (T2G)--V          2.123788          3.500000
  13         (EG)--V           2.123788          3.500000
  14         (EG)--V           2.123788          3.500000
 Orbital energies and kinetic energies (beta):
                                 1                 2
   1         (A1G)--O        -14.492236         21.873457
   2         (A1G)--O         -0.671128          2.248439
   3         (T1U)--V          0.003707          1.429756
   4         (T1U)--V          0.003707          1.429756
   5         (T1U)--V          0.003707          1.429756
   6         (A1G)--V          0.682093          3.153990
   7         (T1U)--V          0.885384          3.075968
   8         (T1U)--V          0.885384          3.075968
   9         (T1U)--V          0.885384          3.075968
  10         (T2G)--V          2.306833          3.500000
  11         (T2G)--V          2.306833          3.500000
  12         (T2G)--V          2.306833          3.500000
  13         (EG)--V           2.306833          3.500000
  14         (EG)--V           2.306833          3.500000
 Total kinetic energy from orbitals= 5.429334004616D+01
                          Isotropic Fermi Contact Couplings
        Atom                 a.u.       MegaHertz       Gauss      10(-4) cm-1
     1  N(14)              0.75819      81.65849      29.13778      27.23834
 --------------------------------------------------------
       Center         ----  Spin Dipole Couplings  ----
                      3XX-RR        3YY-RR        3ZZ-RR
 --------------------------------------------------------
     1   Atom       -0.000000     -0.000000      0.000000
 --------------------------------------------------------
                        XY            XZ            YZ
 --------------------------------------------------------
     1   Atom        0.000000      0.000000      0.000000
 --------------------------------------------------------


 ---------------------------------------------------------------------------------
              Anisotropic Spin Dipole Couplings in Principal Axis System
 ---------------------------------------------------------------------------------

       Atom             a.u.   MegaHertz   Gauss  10(-4) cm-1        Axes

              Baa    -0.0000    -0.000    -0.000    -0.000  1.0000  0.0000  0.0000
     1 N(14)  Bbb    -0.0000    -0.000    -0.000    -0.000 -0.0000  1.0000  0.0000
              Bcc     0.0000     0.000     0.000     0.000  0.0000  0.0000  1.0000
 

 ---------------------------------------------------------------------------------

 No NMR shielding tensors so no spin-rotation constants.
 Leave Link  601 at Mon Feb 17 19:43:53 2025, MaxMem=   104857600 cpu:               0.5 elap:               0.2
 (Enter /software/gaussian/G16-C.01/avx2/g16/l9999.exe)
 Unable to Open any file for archive entry.
 1\1\GINC-LCMDLC3\SP\UwB97XD\def2SVP\N1(4)\STUDENT5\17-Feb-2025\0\\#p w
 B97XD/Def2SVP SP pop=full gfinput\\N 1\\0,4\N,0,0.,0.,0.\\Version=ES64
 L-G16RevC.01\State=4-A1G\HF=-54.5224226\S2=3.755276\S2-1=0.\S2A=3.75\R
 MSD=6.527e-09\Dipole=0.,0.,0.\Quadrupole=0.,0.,0.,0.,0.,0.\PG=OH [O(N1
 )]\\@
 The archive entry for this job was punched.


 PERICLES, SOPHOCLES,
 PELOPONESIAN WAR,
 FRENCH VERBS, LATIN VERBS
 H2SO4.
 Job cpu time:       0 days  0 hours  0 minutes  2.9 seconds.
 Elapsed time:       0 days  0 hours  0 minutes  1.4 seconds.
 File lengths (MBytes):  RWF=      6 Int=      0 D2E=      0 Chk=      1 Scr=      1
 Normal termination of Gaussian 16 at Mon Feb 17 19:43:53 2025.
