 Entering Gaussian System, Link 0=g16
 Input=mol_0120.in
 Output=mol_0120.log
 Initial command:
 /software/gaussian/G16-C.01/avx2/g16/l1.exe "/home/calvino/analyze_logs/Gau-361703.inp" -scrdir="/home/calvino/analyze_logs/"
 Entering Link 1 = /software/gaussian/G16-C.01/avx2/g16/l1.exe PID=    361704.
  
 Copyright (c) 1988-2019, Gaussian, Inc.  All Rights Reserved.
  
 This is part of the Gaussian(R) 16 program.  It is based on
 the Gaussian(R) 09 system (copyright 2009, Gaussian, Inc.),
 the Gaussian(R) 03 system (copyright 2003, Gaussian, Inc.),
 the Gaussian(R) 98 system (copyright 1998, Gaussian, Inc.),
 the Gaussian(R) 94 system (copyright 1995, Gaussian, Inc.),
 the Gaussian 92(TM) system (copyright 1992, Gaussian, Inc.),
 the Gaussian 90(TM) system (copyright 1990, Gaussian, Inc.),
 the Gaussian 88(TM) system (copyright 1988, Gaussian, Inc.),
 the Gaussian 86(TM) system (copyright 1986, Carnegie Mellon
 University), and the Gaussian 82(TM) system (copyright 1983,
 Carnegie Mellon University). Gaussian is a federally registered
 trademark of Gaussian, Inc.
  
 This software contains proprietary and confidential information,
 including trade secrets, belonging to Gaussian, Inc.
  
 This software is provided under written license and may be
 used, copied, transmitted, or stored only in accord with that
 written license.
  
 The following legend is applicable only to US Government
 contracts under FAR:
  
                    RESTRICTED RIGHTS LEGEND
  
 Use, reproduction and disclosure by the US Government is
 subject to restrictions as set forth in subparagraphs (a)
 and (c) of the Commercial Computer Software - Restricted
 Rights clause in FAR 52.227-19.
  
 Gaussian, Inc.
 340 Quinnipiac St., Bldg. 40, Wallingford CT 06492
  
  
 ---------------------------------------------------------------
 Warning -- This program may not be used in any manner that
 competes with the business of Gaussian, Inc. or will provide
 assistance to any competitor of Gaussian, Inc.  The licensee
 of this program is prohibited from giving any competitor of
 Gaussian, Inc. access to this program.  By using this program,
 the user acknowledges that Gaussian, Inc. is engaged in the
 business of creating and licensing software in the field of
 computational chemistry and represents and warrants to the
 licensee that it is not a competitor of Gaussian, Inc. and that
 it will not use this program in any manner prohibited above.
 ---------------------------------------------------------------
  

 Cite this work as:
 Gaussian 16, Revision C.01,
 M. J. Frisch, G. W. Trucks, H. B. Schlegel, G. E. Scuseria, 
 M. A. Robb, J. R. Cheeseman, G. Scalmani, V. Barone, 
 G. A. Petersson, H. Nakatsuji, X. Li, M. Caricato, A. V. Marenich, 
 J. Bloino, B. G. Janesko, R. Gomperts, B. Mennucci, H. P. Hratchian, 
 J. V. Ortiz, A. F. Izmaylov, J. L. Sonnenberg, D. Williams-Young, 
 F. Ding, F. Lipparini, F. Egidi, J. Goings, B. Peng, A. Petrone, 
 T. Henderson, D. Ranasinghe, V. G. Zakrzewski, J. Gao, N. Rega, 
 G. Zheng, W. Liang, M. Hada, M. Ehara, K. Toyota, R. Fukuda, 
 J. Hasegawa, M. Ishida, T. Nakajima, Y. Honda, O. Kitao, H. Nakai, 
 T. Vreven, K. Throssell, J. A. Montgomery, Jr., J. E. Peralta, 
 F. Ogliaro, M. J. Bearpark, J. J. Heyd, E. N. Brothers, K. N. Kudin, 
 V. N. Staroverov, T. A. Keith, R. Kobayashi, J. Normand, 
 K. Raghavachari, A. P. Rendell, J. C. Burant, S. S. Iyengar, 
 J. Tomasi, M. Cossi, J. M. Millam, M. Klene, C. Adamo, R. Cammi, 
 J. W. Ochterski, R. L. Martin, K. Morokuma, O. Farkas, 
 J. B. Foresman, and D. J. Fox, Gaussian, Inc., Wallingford CT, 2019.
 
 ******************************************
 Gaussian 16:  ES64L-G16RevC.01  3-Jul-2019
                13-Feb-2025 
 ******************************************
 %chk=mol_0120.chk
 -------------------------------------------
 #p wB97XD/Def2SVP opt freq pop=full gfinput
 -------------------------------------------
 1/18=20,19=15,26=3,38=1/1,3;
 2/9=110,12=2,17=6,18=5,40=1/2;
 3/5=43,7=101,11=2,24=10,25=1,30=1,71=1,74=-58/1,2,3;
 4//1;
 5/5=2,38=5/2;
 6/7=3,28=1/1;
 7//1,2,3,16;
 1/18=20,19=15,26=3/3(2);
 2/9=110/2;
 99//99;
 2/9=110/2;
 3/5=43,7=101,11=2,25=1,30=1,71=1,74=-58/1,2,3;
 4/5=5,16=3,69=1/1;
 5/5=2,38=5/2;
 7//1,2,3,16;
 1/18=20,19=15,26=3/3(-5);
 2/9=110/2;
 6/7=3,19=2,28=1/1;
 99/9=1/99;
 Leave Link    1 at Thu Feb 13 13:20:12 2025, MaxMem=           0 cpu:               0.0 elap:               0.1
 (Enter /software/gaussian/G16-C.01/avx2/g16/l101.exe)
 ---------------------
 re-optimize from gaff
 ---------------------
 Symbolic Z-matrix:
 Charge =  1 Multiplicity = 2
 S                    -0.5166   -1.2799   -0.00267 
 C                    -1.31343   0.26757  -0.01926 
 C                    -0.40651   1.29414  -0.03592 
 C                     0.94535   0.84149  -0.03546 
 C                     1.0513   -0.52423  -0.01847 
 H                    -2.39627   0.29272  -0.01533 
 H                    -0.67604   2.34523  -0.04826 
 H                     1.79342   1.51838  -0.04743 
 H                     1.93104  -1.15611  -0.01387 
 
 ITRead=  0  0  0  0  0  0  0  0  0
 MicOpt= -1 -1 -1 -1 -1 -1 -1 -1 -1
 NAtoms=      9 NQM=        9 NQMF=       0 NMMI=      0 NMMIF=      0
                NMic=       0 NMicF=      0.
                    Isotopes and Nuclear Properties:
 (Nuclear quadrupole moments (NQMom) in fm**2, nuclear magnetic moments (NMagM)
  in nuclear magnetons)

  Atom         1           2           3           4           5           6           7           8           9
 IAtWgt=          32          12          12          12          12           1           1           1           1
 AtmWgt=  31.9720718  12.0000000  12.0000000  12.0000000  12.0000000   1.0078250   1.0078250   1.0078250   1.0078250
 NucSpn=           0           0           0           0           0           1           1           1           1
 AtZEff=  -0.0000000  -0.0000000  -0.0000000  -0.0000000  -0.0000000  -0.0000000  -0.0000000  -0.0000000  -0.0000000
 NQMom=    0.0000000   0.0000000   0.0000000   0.0000000   0.0000000   0.0000000   0.0000000   0.0000000   0.0000000
 NMagM=    0.0000000   0.0000000   0.0000000   0.0000000   0.0000000   2.7928460   2.7928460   2.7928460   2.7928460
 AtZNuc=  16.0000000   6.0000000   6.0000000   6.0000000   6.0000000   1.0000000   1.0000000   1.0000000   1.0000000
 Leave Link  101 at Thu Feb 13 13:20:12 2025, MaxMem=   104857600 cpu:               0.2 elap:               0.2
 (Enter /software/gaussian/G16-C.01/avx2/g16/l103.exe)

 GradGradGradGradGradGradGradGradGradGradGradGradGradGradGradGradGradGrad
 Berny optimization.
 Initialization pass.
                           ----------------------------
                           !    Initial Parameters    !
                           ! (Angstroms and Degrees)  !
 --------------------------                            --------------------------
 ! Name  Definition              Value          Derivative Info.                !
 --------------------------------------------------------------------------------
 ! R1    R(1,2)                  1.7407         estimate D2E/DX2                !
 ! R2    R(1,5)                  1.7406         estimate D2E/DX2                !
 ! R3    R(2,3)                  1.3699         estimate D2E/DX2                !
 ! R4    R(2,6)                  1.0831         estimate D2E/DX2                !
 ! R5    R(3,4)                  1.4256         estimate D2E/DX2                !
 ! R6    R(3,7)                  1.0852         estimate D2E/DX2                !
 ! R7    R(4,5)                  1.3699         estimate D2E/DX2                !
 ! R8    R(4,8)                  1.0851         estimate D2E/DX2                !
 ! R9    R(5,9)                  1.0832         estimate D2E/DX2                !
 ! A1    A(2,1,5)               91.5076         estimate D2E/DX2                !
 ! A2    A(1,2,3)              111.3005         estimate D2E/DX2                !
 ! A3    A(1,2,6)              118.5717         estimate D2E/DX2                !
 ! A4    A(3,2,6)              130.1278         estimate D2E/DX2                !
 ! A5    A(2,3,4)              112.9445         estimate D2E/DX2                !
 ! A6    A(2,3,7)              124.1629         estimate D2E/DX2                !
 ! A7    A(4,3,7)              122.8926         estimate D2E/DX2                !
 ! A8    A(3,4,5)              112.9467         estimate D2E/DX2                !
 ! A9    A(3,4,8)              122.8899         estimate D2E/DX2                !
 ! A10   A(5,4,8)              124.1633         estimate D2E/DX2                !
 ! A11   A(1,5,4)              111.3006         estimate D2E/DX2                !
 ! A12   A(1,5,9)              118.5755         estimate D2E/DX2                !
 ! A13   A(4,5,9)              130.1239         estimate D2E/DX2                !
 ! D1    D(5,1,2,3)              0.0003         estimate D2E/DX2                !
 ! D2    D(5,1,2,6)            179.9994         estimate D2E/DX2                !
 ! D3    D(2,1,5,4)              0.0001         estimate D2E/DX2                !
 ! D4    D(2,1,5,9)            179.9996         estimate D2E/DX2                !
 ! D5    D(1,2,3,4)             -0.0006         estimate D2E/DX2                !
 ! D6    D(1,2,3,7)            179.9999         estimate D2E/DX2                !
 ! D7    D(6,2,3,4)           -179.9996         estimate D2E/DX2                !
 ! D8    D(6,2,3,7)              0.0009         estimate D2E/DX2                !
 ! D9    D(2,3,4,5)              0.0007         estimate D2E/DX2                !
 ! D10   D(2,3,4,8)            179.9999         estimate D2E/DX2                !
 ! D11   D(7,3,4,5)           -179.9999         estimate D2E/DX2                !
 ! D12   D(7,3,4,8)             -0.0006         estimate D2E/DX2                !
 ! D13   D(3,4,5,1)             -0.0004         estimate D2E/DX2                !
 ! D14   D(3,4,5,9)           -179.9999         estimate D2E/DX2                !
 ! D15   D(8,4,5,1)           -179.9996         estimate D2E/DX2                !
 ! D16   D(8,4,5,9)              0.0009         estimate D2E/DX2                !
 --------------------------------------------------------------------------------
 Trust Radius=3.00D-01 FncErr=1.00D-07 GrdErr=1.00D-06 EigMax=2.50D+02 EigMin=1.00D-04
 Number of steps in this run=     48 maximum allowed number of steps=    100.
 GradGradGradGradGradGradGradGradGradGradGradGradGradGradGradGradGradGrad

 Leave Link  103 at Thu Feb 13 13:20:12 2025, MaxMem=   104857600 cpu:               0.0 elap:               0.0
 (Enter /software/gaussian/G16-C.01/avx2/g16/l202.exe)
                          Input orientation:                          
 ---------------------------------------------------------------------
 Center     Atomic      Atomic             Coordinates (Angstroms)
 Number     Number       Type             X           Y           Z
 ---------------------------------------------------------------------
      1         16           0       -0.516600   -1.279900   -0.002670
      2          6           0       -1.313430    0.267570   -0.019260
      3          6           0       -0.406510    1.294140   -0.035920
      4          6           0        0.945350    0.841490   -0.035460
      5          6           0        1.051300   -0.524230   -0.018470
      6          1           0       -2.396270    0.292720   -0.015330
      7          1           0       -0.676040    2.345230   -0.048260
      8          1           0        1.793420    1.518380   -0.047430
      9          1           0        1.931040   -1.156110   -0.013870
 ---------------------------------------------------------------------
                    Distance matrix (angstroms):
                    1          2          3          4          5
     1  S    0.000000
     2  C    1.740654   0.000000
     3  C    2.576608   1.369901   0.000000
     4  C    2.576561   2.330608   1.425629   0.000000
     5  C    1.740574   2.493771   2.330662   1.369929   0.000000
     6  H    2.450807   1.083139   2.227647   3.386440   3.543043
     7  H    3.628921   2.173425   1.085168   2.211403   3.349387
     8  H    3.628852   3.349304   2.211359   1.085148   2.173439
     9  H    2.450794   3.543089   3.386495   2.227657   1.083160
                    6          7          8          9
     6  H    0.000000
     7  H    2.678259   0.000000
     8  H    4.365407   2.604211   0.000000
     9  H    4.563411   4.365482   2.678239   0.000000
 Stoichiometry    C4H4S(1+,2)
 Framework group  C1[X(C4H4S)]
 Deg. of freedom    21
 Full point group                 C1      NOp   1
 Largest Abelian subgroup         C1      NOp   1
 Largest concise Abelian subgroup C1      NOp   1
                         Standard orientation:                         
 ---------------------------------------------------------------------
 Center     Atomic      Atomic             Coordinates (Angstroms)
 Number     Number       Type             X           Y           Z
 ---------------------------------------------------------------------
      1         16           0       -1.201133   -0.000092    0.000001
      2          6           0        0.013511   -1.246894   -0.000004
      3          6           0        1.274969   -0.712711    0.000003
      4          6           0        1.274808    0.712918   -0.000003
      5          6           0        0.013225    1.246877    0.000001
      6          1           0       -0.306363   -2.281723    0.000004
      7          1           0        2.186240   -1.301926    0.000003
      8          1           0        2.185957    1.302285    0.000003
      9          1           0       -0.306779    2.281688   -0.000003
 ---------------------------------------------------------------------
 Rotational constants (GHZ):           7.9688631           5.3310637           3.1941918
 Leave Link  202 at Thu Feb 13 13:20:12 2025, MaxMem=   104857600 cpu:               0.0 elap:               0.0
 (Enter /software/gaussian/G16-C.01/avx2/g16/l301.exe)
 Standard basis: def2SVP (5D, 7F)
 Ernie: Thresh=  0.10000D-02 Tol=  0.10000D-05 Strict=F.
 AO basis set in the form of general basis input (Overlap normalization):
      1 0
 S   5 1.00       0.000000000000
      0.9184930301D+04 -0.5472946613D-02
      0.1381510550D+04 -0.4095440216D-01
      0.3138714758D+03 -0.1847582896D+00
      0.8805387062D+02 -0.4756728064D+00
      0.2703991490D+02 -0.4349515358D+00
 S   3 1.00       0.000000000000
      0.4564873130D+02 -0.9190404581D-01
      0.4966452233D+01  0.5569877721D+00
      0.2011624205D+01  0.5111546830D+00
 S   1 1.00       0.000000000000
      0.3566107701D+00  0.1000000000D+01
 S   1 1.00       0.000000000000
      0.1350722148D+00  0.1000000000D+01
 P   5 1.00       0.000000000000
      0.2619823344D+03 -0.9183054659D-02
      0.6130689474D+02 -0.6590222653D-01
      0.1910372989D+02 -0.2458778452D+00
      0.6656772038D+01 -0.4823147108D+00
      0.2395963516D+01 -0.3895631435D+00
 P   1 1.00       0.000000000000
      0.6177616168D+00  0.1000000000D+01
 P   1 1.00       0.000000000000
      0.1699337687D+00  0.1000000000D+01
 D   1 1.00       0.000000000000
      0.5500000000D+00  0.1000000000D+01
 ****
      2 0
 S   5 1.00       0.000000000000
      0.1238401694D+04  0.5517365048D-02
      0.1862900499D+03  0.4108882856D-01
      0.4225117635D+02  0.1822538213D+00
      0.1167655793D+02  0.4682845944D+00
      0.3593050648D+01  0.4457581734D+00
 S   1 1.00       0.000000000000
      0.4024514736D+00  0.1000000000D+01
 S   1 1.00       0.000000000000
      0.1309018267D+00  0.1000000000D+01
 P   3 1.00       0.000000000000
      0.9468097062D+01  0.5688833201D-01
      0.2010354514D+01  0.3129405934D+00
      0.5477100471D+00  0.7606501651D+00
 P   1 1.00       0.000000000000
      0.1526861379D+00  0.1000000000D+01
 D   1 1.00       0.000000000000
      0.8000000000D+00  0.1000000000D+01
 ****
      3 0
 S   5 1.00       0.000000000000
      0.1238401694D+04  0.5517365048D-02
      0.1862900499D+03  0.4108882856D-01
      0.4225117635D+02  0.1822538213D+00
      0.1167655793D+02  0.4682845944D+00
      0.3593050648D+01  0.4457581734D+00
 S   1 1.00       0.000000000000
      0.4024514736D+00  0.1000000000D+01
 S   1 1.00       0.000000000000
      0.1309018267D+00  0.1000000000D+01
 P   3 1.00       0.000000000000
      0.9468097062D+01  0.5688833201D-01
      0.2010354514D+01  0.3129405934D+00
      0.5477100471D+00  0.7606501651D+00
 P   1 1.00       0.000000000000
      0.1526861379D+00  0.1000000000D+01
 D   1 1.00       0.000000000000
      0.8000000000D+00  0.1000000000D+01
 ****
      4 0
 S   5 1.00       0.000000000000
      0.1238401694D+04  0.5517365048D-02
      0.1862900499D+03  0.4108882856D-01
      0.4225117635D+02  0.1822538213D+00
      0.1167655793D+02  0.4682845944D+00
      0.3593050648D+01  0.4457581734D+00
 S   1 1.00       0.000000000000
      0.4024514736D+00  0.1000000000D+01
 S   1 1.00       0.000000000000
      0.1309018267D+00  0.1000000000D+01
 P   3 1.00       0.000000000000
      0.9468097062D+01  0.5688833201D-01
      0.2010354514D+01  0.3129405934D+00
      0.5477100471D+00  0.7606501651D+00
 P   1 1.00       0.000000000000
      0.1526861379D+00  0.1000000000D+01
 D   1 1.00       0.000000000000
      0.8000000000D+00  0.1000000000D+01
 ****
      5 0
 S   5 1.00       0.000000000000
      0.1238401694D+04  0.5517365048D-02
      0.1862900499D+03  0.4108882856D-01
      0.4225117635D+02  0.1822538213D+00
      0.1167655793D+02  0.4682845944D+00
      0.3593050648D+01  0.4457581734D+00
 S   1 1.00       0.000000000000
      0.4024514736D+00  0.1000000000D+01
 S   1 1.00       0.000000000000
      0.1309018267D+00  0.1000000000D+01
 P   3 1.00       0.000000000000
      0.9468097062D+01  0.5688833201D-01
      0.2010354514D+01  0.3129405934D+00
      0.5477100471D+00  0.7606501651D+00
 P   1 1.00       0.000000000000
      0.1526861379D+00  0.1000000000D+01
 D   1 1.00       0.000000000000
      0.8000000000D+00  0.1000000000D+01
 ****
      6 0
 S   3 1.00       0.000000000000
      0.1301070100D+02  0.3348548481D-01
      0.1962257200D+01  0.2347218709D+00
      0.4445379600D+00  0.8137702853D+00
 S   1 1.00       0.000000000000
      0.1219496200D+00  0.1000000000D+01
 P   1 1.00       0.000000000000
      0.8000000000D+00  0.1000000000D+01
 ****
      7 0
 S   3 1.00       0.000000000000
      0.1301070100D+02  0.3348548481D-01
      0.1962257200D+01  0.2347218709D+00
      0.4445379600D+00  0.8137702853D+00
 S   1 1.00       0.000000000000
      0.1219496200D+00  0.1000000000D+01
 P   1 1.00       0.000000000000
      0.8000000000D+00  0.1000000000D+01
 ****
      8 0
 S   3 1.00       0.000000000000
      0.1301070100D+02  0.3348548481D-01
      0.1962257200D+01  0.2347218709D+00
      0.4445379600D+00  0.8137702853D+00
 S   1 1.00       0.000000000000
      0.1219496200D+00  0.1000000000D+01
 P   1 1.00       0.000000000000
      0.8000000000D+00  0.1000000000D+01
 ****
      9 0
 S   3 1.00       0.000000000000
      0.1301070100D+02  0.3348548481D-01
      0.1962257200D+01  0.2347218709D+00
      0.4445379600D+00  0.8137702853D+00
 S   1 1.00       0.000000000000
      0.1219496200D+00  0.1000000000D+01
 P   1 1.00       0.000000000000
      0.8000000000D+00  0.1000000000D+01
 ****

 There are    99 symmetry adapted cartesian basis functions of A   symmetry.
 There are    94 symmetry adapted basis functions of A   symmetry.
    94 basis functions,   165 primitive gaussians,    99 cartesian basis functions
    22 alpha electrons       21 beta electrons
       nuclear repulsion energy       201.4207112713 Hartrees.
 IExCor= 4639 DFT=T Ex+Corr=wB97XD ExCW=0 ScaHFX=  1.000000
 ScaDFX=  1.000000  1.000000  1.000000  1.000000 ScalE2=  1.000000  1.000000
 IRadAn=      5 IRanWt=     -1 IRanGd=            0 ICorTp=0 IEmpDi=121
 HFx  wShort=  0.000000 wLong=  0.200000 cFull=  0.222036 cShort=  0.000000 cLong=  0.777964
 DFx  wShort=  0.000000 wLong=  0.200000 cFull=  0.000000 cShort=  0.000000 cLong=  1.000000
 NAtoms=    9 NActive=    9 NUniq=    9 SFac= 1.00D+00 NAtFMM=   60 NAOKFM=F Big=F
 Integral buffers will be    131072 words long.
 Raffenetti 2 integral format.
 Two-electron integral symmetry is turned on.
 R6Disp:  Grimme-D2 Dispersion energy=       -0.0022095270 Hartrees.
 Nuclear repulsion after empirical dispersion term =      201.4185017444 Hartrees.
 Leave Link  301 at Thu Feb 13 13:20:13 2025, MaxMem=   104857600 cpu:               0.1 elap:               0.1
 (Enter /software/gaussian/G16-C.01/avx2/g16/l302.exe)
 NPDir=0 NMtPBC=     1 NCelOv=     1 NCel=       1 NClECP=     1 NCelD=      1
         NCelK=      1 NCelE2=     1 NClLst=     1 CellRange=     0.0.
 One-electron integrals computed using PRISM.
 One-electron integral symmetry used in STVInt
   1 Symmetry operations used in ECPInt.
 ECPInt:  NShTT=     990 NPrTT=    3828 LenC2=     989 LenP2D=    3249.
 LDataN:  DoStor=T MaxTD1= 4 Len=   56
 NBasis=    94 RedAO= T EigKep=  1.04D-03  NBF=    94
 NBsUse=    94 1.00D-06 EigRej= -1.00D+00 NBFU=    94
 Precomputing XC quadrature grid using
 IXCGrd= 4 IRadAn=           5 IRanWt=          -1 IRanGd=           0 AccXCQ= 0.00D+00.
 Generated NRdTot=       0 NPtTot=           0 NUsed=           0 NTot=          32
 NSgBfM=    99    99    99    99    99 MxSgAt=     9 MxSgA2=     9.
 Leave Link  302 at Thu Feb 13 13:20:13 2025, MaxMem=   104857600 cpu:               0.2 elap:               0.2
 (Enter /software/gaussian/G16-C.01/avx2/g16/l303.exe)
 DipDrv:  MaxL=1.
 Leave Link  303 at Thu Feb 13 13:20:13 2025, MaxMem=   104857600 cpu:               0.0 elap:               0.1
 (Enter /software/gaussian/G16-C.01/avx2/g16/l401.exe)
 ExpMin= 1.22D-01 ExpMax= 9.18D+03 ExpMxC= 1.38D+03 IAcc=3 IRadAn=         5 AccDes= 0.00D+00
 Harris functional with IExCor= 4639 and IRadAn=       5 diagonalized for initial guess.
 HarFok:  IExCor= 4639 AccDes= 0.00D+00 IRadAn=         5 IDoV= 1 UseB2=F ITyADJ=14
 ICtDFT=  3500011 ScaDFX=  1.000000  1.000000  1.000000  1.000000
 FoFCou: FMM=F IPFlag=           0 FMFlag=      100000 FMFlg1=           0
         NFxFlg=           0 DoJE=T BraDBF=F KetDBF=T FulRan=T
         wScrn=  0.000000 ICntrl=       500 IOpCl=  0 I1Cent=   200000004 NGrid=           0
         NMat0=    1 NMatS0=      1 NMatT0=    0 NMatD0=    1 NMtDS0=    0 NMtDT0=    0
 Petite list used in FoFCou.
 Harris En= -538.489070320260    
 JPrj=0 DoOrth=F DoCkMO=F.
 Initial guess <Sx>= 0.0000 <Sy>= 0.0000 <Sz>= 0.5000 <S**2>= 0.7500 S= 0.5000
 Leave Link  401 at Thu Feb 13 13:20:14 2025, MaxMem=   104857600 cpu:               1.1 elap:               1.2
 (Enter /software/gaussian/G16-C.01/avx2/g16/l502.exe)
 Keep R1 and R2 ints in memory in canonical form, NReq=41233831.
 FoFCou: FMM=F IPFlag=           0 FMFlag=           0 FMFlg1=           0
         NFxFlg=           0 DoJE=F BraDBF=F KetDBF=F FulRan=T
         wScrn=  0.000000 ICntrl=       600 IOpCl=  0 I1Cent=           0 NGrid=           0
         NMat0=    1 NMatS0=   4465 NMatT0=    0 NMatD0=    1 NMtDS0=    0 NMtDT0=    0
 Symmetry not used in FoFCou.
 Two-electron integral symmetry not used.
 UHF open shell SCF:
 Using DIIS extrapolation, IDIIS=  1040.
 NGot=   104857600 LenX=    64954658 LenY=    64944416
 Requested convergence on RMS density matrix=1.00D-08 within 128 cycles.
 Requested convergence on MAX density matrix=1.00D-06.
 Requested convergence on             energy=1.00D-06.
 No special actions if energy rises.
 Integral accuracy reduced to 1.0D-05 until final iterations.

 Cycle   1  Pass 0  IDiag  1:
 E= -552.110638598618    
 DIIS: error= 5.89D-02 at cycle   1 NSaved=   1.
 NSaved= 1 IEnMin= 1 EnMin= -552.110638598618     IErMin= 1 ErrMin= 5.89D-02
 ErrMax= 5.89D-02  0.00D+00 EMaxC= 1.00D-01 BMatC= 1.30D+00 BMatP= 1.30D+00
 IDIUse=3 WtCom= 4.11D-01 WtEn= 5.89D-01
 Coeff-Com:  0.100D+01
 Coeff-En:   0.100D+01
 Coeff:      0.100D+01
 Gap=     0.417 Goal=   None    Shift=    0.000
 Gap=     0.068 Goal=   None    Shift=    0.000
 GapD=    0.068 DampG=0.500 DampE=0.500 DampFc=0.2500 IDamp=-1.
 Damping current iteration by 2.50D-01
 RMSDP=1.27D-02 MaxDP=4.28D-01              OVMax= 5.29D-01

 Cycle   2  Pass 0  IDiag  1:
 E= -552.194550514832     Delta-E=       -0.083911916214 Rises=F Damp=T
 DIIS: error= 3.65D-02 at cycle   2 NSaved=   2.
 NSaved= 2 IEnMin= 2 EnMin= -552.194550514832     IErMin= 2 ErrMin= 3.65D-02
 ErrMax= 3.65D-02  0.00D+00 EMaxC= 1.00D-01 BMatC= 4.92D-01 BMatP= 1.30D+00
 IDIUse=3 WtCom= 6.35D-01 WtEn= 3.65D-01
 Coeff-Com: -0.129D+01 0.229D+01
 Coeff-En:   0.000D+00 0.100D+01
 Coeff:     -0.818D+00 0.182D+01
 Gap=     0.428 Goal=   None    Shift=    0.000
 Gap=     0.141 Goal=   None    Shift=    0.000
 RMSDP=5.49D-03 MaxDP=1.61D-01 DE=-8.39D-02 OVMax= 2.91D-01

 Cycle   3  Pass 0  IDiag  1:
 E= -552.358660251741     Delta-E=       -0.164109736909 Rises=F Damp=F
 DIIS: error= 6.74D-03 at cycle   3 NSaved=   3.
 NSaved= 3 IEnMin= 3 EnMin= -552.358660251741     IErMin= 3 ErrMin= 6.74D-03
 ErrMax= 6.74D-03  0.00D+00 EMaxC= 1.00D-01 BMatC= 1.30D-02 BMatP= 4.92D-01
 IDIUse=3 WtCom= 9.33D-01 WtEn= 6.74D-02
 Coeff-Com: -0.208D+00 0.392D+00 0.816D+00
 Coeff-En:   0.000D+00 0.000D+00 0.100D+01
 Coeff:     -0.194D+00 0.366D+00 0.828D+00
 Gap=     0.364 Goal=   None    Shift=    0.000
 Gap=     0.179 Goal=   None    Shift=    0.000
 RMSDP=9.06D-04 MaxDP=2.79D-02 DE=-1.64D-01 OVMax= 4.00D-02

 Cycle   4  Pass 0  IDiag  1:
 E= -552.362462623868     Delta-E=       -0.003802372127 Rises=F Damp=F
 DIIS: error= 4.68D-03 at cycle   4 NSaved=   4.
 NSaved= 4 IEnMin= 4 EnMin= -552.362462623868     IErMin= 4 ErrMin= 4.68D-03
 ErrMax= 4.68D-03  0.00D+00 EMaxC= 1.00D-01 BMatC= 3.10D-03 BMatP= 1.30D-02
 IDIUse=3 WtCom= 9.53D-01 WtEn= 4.68D-02
 Coeff-Com: -0.112D-02 0.605D-02 0.302D+00 0.693D+00
 Coeff-En:   0.000D+00 0.000D+00 0.000D+00 0.100D+01
 Coeff:     -0.106D-02 0.576D-02 0.288D+00 0.708D+00
 Gap=     0.365 Goal=   None    Shift=    0.000
 Gap=     0.178 Goal=   None    Shift=    0.000
 RMSDP=3.85D-04 MaxDP=7.80D-03 DE=-3.80D-03 OVMax= 1.83D-02

 Cycle   5  Pass 0  IDiag  1:
 E= -552.363602523603     Delta-E=       -0.001139899735 Rises=F Damp=F
 DIIS: error= 1.70D-03 at cycle   5 NSaved=   5.
 NSaved= 5 IEnMin= 5 EnMin= -552.363602523603     IErMin= 5 ErrMin= 1.70D-03
 ErrMax= 1.70D-03  0.00D+00 EMaxC= 1.00D-01 BMatC= 3.66D-04 BMatP= 3.10D-03
 IDIUse=3 WtCom= 9.83D-01 WtEn= 1.70D-02
 Coeff-Com:  0.169D-01-0.309D-01-0.495D-01 0.893D-01 0.974D+00
 Coeff-En:   0.000D+00 0.000D+00 0.000D+00 0.000D+00 0.100D+01
 Coeff:      0.166D-01-0.304D-01-0.486D-01 0.878D-01 0.975D+00
 Gap=     0.366 Goal=   None    Shift=    0.000
 Gap=     0.184 Goal=   None    Shift=    0.000
 RMSDP=2.15D-04 MaxDP=5.76D-03 DE=-1.14D-03 OVMax= 1.33D-02

 Cycle   6  Pass 0  IDiag  1:
 E= -552.363943362151     Delta-E=       -0.000340838549 Rises=F Damp=F
 DIIS: error= 1.25D-03 at cycle   6 NSaved=   6.
 NSaved= 6 IEnMin= 6 EnMin= -552.363943362151     IErMin= 6 ErrMin= 1.25D-03
 ErrMax= 1.25D-03  0.00D+00 EMaxC= 1.00D-01 BMatC= 1.32D-04 BMatP= 3.66D-04
 IDIUse=3 WtCom= 9.87D-01 WtEn= 1.25D-02
 Coeff-Com:  0.636D-03-0.304D-02-0.111D+00-0.203D+00 0.323D+00 0.994D+00
 Coeff-En:   0.000D+00 0.000D+00 0.000D+00 0.000D+00 0.000D+00 0.100D+01
 Coeff:      0.628D-03-0.301D-02-0.110D+00-0.201D+00 0.319D+00 0.994D+00
 Gap=     0.366 Goal=   None    Shift=    0.000
 Gap=     0.186 Goal=   None    Shift=    0.000
 RMSDP=1.69D-04 MaxDP=4.31D-03 DE=-3.41D-04 OVMax= 1.13D-02

 Cycle   7  Pass 0  IDiag  1:
 E= -552.364096912208     Delta-E=       -0.000153550056 Rises=F Damp=F
 DIIS: error= 4.83D-04 at cycle   7 NSaved=   7.
 NSaved= 7 IEnMin= 7 EnMin= -552.364096912208     IErMin= 7 ErrMin= 4.83D-04
 ErrMax= 4.83D-04  0.00D+00 EMaxC= 1.00D-01 BMatC= 1.92D-05 BMatP= 1.32D-04
 IDIUse=3 WtCom= 9.95D-01 WtEn= 4.83D-03
 Coeff-Com: -0.936D-02 0.150D-01 0.201D-01 0.633D-02-0.237D+00-0.118D+00
 Coeff-Com:  0.132D+01
 Coeff-En:   0.000D+00 0.000D+00 0.000D+00 0.000D+00 0.000D+00 0.000D+00
 Coeff-En:   0.100D+01
 Coeff:     -0.931D-02 0.149D-01 0.200D-01 0.630D-02-0.236D+00-0.118D+00
 Coeff:      0.132D+01
 Gap=     0.366 Goal=   None    Shift=    0.000
 Gap=     0.187 Goal=   None    Shift=    0.000
 RMSDP=9.53D-05 MaxDP=2.20D-03 DE=-1.54D-04 OVMax= 6.37D-03

 Cycle   8  Pass 0  IDiag  1:
 E= -552.364133181551     Delta-E=       -0.000036269343 Rises=F Damp=F
 DIIS: error= 1.78D-04 at cycle   8 NSaved=   8.
 NSaved= 8 IEnMin= 8 EnMin= -552.364133181551     IErMin= 8 ErrMin= 1.78D-04
 ErrMax= 1.78D-04  0.00D+00 EMaxC= 1.00D-01 BMatC= 2.76D-06 BMatP= 1.92D-05
 IDIUse=3 WtCom= 9.98D-01 WtEn= 1.78D-03
 Coeff-Com:  0.342D-02-0.523D-02 0.122D-01 0.324D-01 0.423D-02-0.126D+00
 Coeff-Com: -0.406D+00 0.149D+01
 Coeff-En:   0.000D+00 0.000D+00 0.000D+00 0.000D+00 0.000D+00 0.000D+00
 Coeff-En:   0.000D+00 0.100D+01
 Coeff:      0.341D-02-0.522D-02 0.121D-01 0.323D-01 0.422D-02-0.126D+00
 Coeff:     -0.405D+00 0.148D+01
 Gap=     0.367 Goal=   None    Shift=    0.000
 Gap=     0.188 Goal=   None    Shift=    0.000
 RMSDP=4.79D-05 MaxDP=1.23D-03 DE=-3.63D-05 OVMax= 3.12D-03

 Cycle   9  Pass 0  IDiag  1:
 E= -552.364140067821     Delta-E=       -0.000006886270 Rises=F Damp=F
 DIIS: error= 7.80D-05 at cycle   9 NSaved=   9.
 NSaved= 9 IEnMin= 9 EnMin= -552.364140067821     IErMin= 9 ErrMin= 7.80D-05
 ErrMax= 7.80D-05  0.00D+00 EMaxC= 1.00D-01 BMatC= 4.93D-07 BMatP= 2.76D-06
 IDIUse=1 WtCom= 1.00D+00 WtEn= 0.00D+00
 Coeff-Com:  0.206D-02-0.293D-02-0.643D-02-0.105D-01 0.272D-01 0.623D-01
 Coeff-Com: -0.374D-01-0.484D+00 0.145D+01
 Coeff:      0.206D-02-0.293D-02-0.643D-02-0.105D-01 0.272D-01 0.623D-01
 Coeff:     -0.374D-01-0.484D+00 0.145D+01
 Gap=     0.367 Goal=   None    Shift=    0.000
 Gap=     0.188 Goal=   None    Shift=    0.000
 RMSDP=1.62D-05 MaxDP=3.87D-04 DE=-6.89D-06 OVMax= 1.24D-03

 Cycle  10  Pass 0  IDiag  1:
 E= -552.364141142704     Delta-E=       -0.000001074883 Rises=F Damp=F
 DIIS: error= 4.93D-05 at cycle  10 NSaved=  10.
 NSaved=10 IEnMin=10 EnMin= -552.364141142704     IErMin=10 ErrMin= 4.93D-05
 ErrMax= 4.93D-05  0.00D+00 EMaxC= 1.00D-01 BMatC= 1.11D-07 BMatP= 4.93D-07
 IDIUse=1 WtCom= 1.00D+00 WtEn= 0.00D+00
 Coeff-Com:  0.353D-03-0.471D-03-0.105D-02-0.325D-02 0.266D-02 0.148D-01
 Coeff-Com:  0.381D-01-0.180D+00-0.486D-01 0.118D+01
 Coeff:      0.353D-03-0.471D-03-0.105D-02-0.325D-02 0.266D-02 0.148D-01
 Coeff:      0.381D-01-0.180D+00-0.486D-01 0.118D+01
 Gap=     0.367 Goal=   None    Shift=    0.000
 Gap=     0.188 Goal=   None    Shift=    0.000
 RMSDP=6.80D-06 MaxDP=1.70D-04 DE=-1.07D-06 OVMax= 6.90D-04

 Initial convergence to 1.0D-05 achieved.  Increase integral accuracy.
 Cycle  11  Pass 1  IDiag  1:
 E= -552.364171576376     Delta-E=       -0.000030433672 Rises=F Damp=F
 DIIS: error= 4.52D-05 at cycle   1 NSaved=   1.
 NSaved= 1 IEnMin= 1 EnMin= -552.364171576376     IErMin= 1 ErrMin= 4.52D-05
 ErrMax= 4.52D-05  0.00D+00 EMaxC= 1.00D-01 BMatC= 5.95D-07 BMatP= 5.95D-07
 IDIUse=1 WtCom= 1.00D+00 WtEn= 0.00D+00
 Coeff-Com:  0.100D+01
 Coeff:      0.100D+01
 Gap=     0.367 Goal=   None    Shift=    0.000
 Gap=     0.188 Goal=   None    Shift=    0.000
 RMSDP=6.80D-06 MaxDP=1.70D-04 DE=-3.04D-05 OVMax= 1.88D-04

 Cycle  12  Pass 1  IDiag  1:
 E= -552.364171755360     Delta-E=       -0.000000178983 Rises=F Damp=F
 DIIS: error= 1.22D-05 at cycle   2 NSaved=   2.
 NSaved= 2 IEnMin= 2 EnMin= -552.364171755360     IErMin= 2 ErrMin= 1.22D-05
 ErrMax= 1.22D-05  0.00D+00 EMaxC= 1.00D-01 BMatC= 7.26D-08 BMatP= 5.95D-07
 IDIUse=1 WtCom= 1.00D+00 WtEn= 0.00D+00
 Coeff-Com:  0.111D+00 0.889D+00
 Coeff:      0.111D+00 0.889D+00
 Gap=     0.367 Goal=   None    Shift=    0.000
 Gap=     0.188 Goal=   None    Shift=    0.000
 RMSDP=2.72D-06 MaxDP=8.02D-05 DE=-1.79D-07 OVMax= 1.39D-04

 Cycle  13  Pass 1  IDiag  1:
 E= -552.364171778952     Delta-E=       -0.000000023592 Rises=F Damp=F
 DIIS: error= 1.27D-05 at cycle   3 NSaved=   3.
 NSaved= 3 IEnMin= 3 EnMin= -552.364171778952     IErMin= 2 ErrMin= 1.22D-05
 ErrMax= 1.27D-05  0.00D+00 EMaxC= 1.00D-01 BMatC= 4.18D-08 BMatP= 7.26D-08
 IDIUse=1 WtCom= 1.00D+00 WtEn= 0.00D+00
 Coeff-Com: -0.538D-01 0.418D+00 0.635D+00
 Coeff:     -0.538D-01 0.418D+00 0.635D+00
 Gap=     0.367 Goal=   None    Shift=    0.000
 Gap=     0.188 Goal=   None    Shift=    0.000
 RMSDP=1.43D-06 MaxDP=3.52D-05 DE=-2.36D-08 OVMax= 1.21D-04

 Cycle  14  Pass 1  IDiag  1:
 E= -552.364171799523     Delta-E=       -0.000000020572 Rises=F Damp=F
 DIIS: error= 1.22D-05 at cycle   4 NSaved=   4.
 NSaved= 4 IEnMin= 4 EnMin= -552.364171799523     IErMin= 4 ErrMin= 1.22D-05
 ErrMax= 1.22D-05  0.00D+00 EMaxC= 1.00D-01 BMatC= 5.44D-09 BMatP= 4.18D-08
 IDIUse=1 WtCom= 1.00D+00 WtEn= 0.00D+00
 Coeff-Com: -0.204D-01 0.162D-01 0.171D+00 0.833D+00
 Coeff:     -0.204D-01 0.162D-01 0.171D+00 0.833D+00
 Gap=     0.367 Goal=   None    Shift=    0.000
 Gap=     0.188 Goal=   None    Shift=    0.000
 RMSDP=1.09D-06 MaxDP=3.04D-05 DE=-2.06D-08 OVMax= 1.38D-04

 Cycle  15  Pass 1  IDiag  1:
 E= -552.364171811801     Delta-E=       -0.000000012278 Rises=F Damp=F
 DIIS: error= 1.26D-05 at cycle   5 NSaved=   5.
 NSaved= 5 IEnMin= 5 EnMin= -552.364171811801     IErMin= 4 ErrMin= 1.22D-05
 ErrMax= 1.26D-05  0.00D+00 EMaxC= 1.00D-01 BMatC= 3.87D-09 BMatP= 5.44D-09
 IDIUse=1 WtCom= 1.00D+00 WtEn= 0.00D+00
 Coeff-Com:  0.825D-02-0.961D-01-0.761D-01 0.172D+00 0.992D+00
 Coeff:      0.825D-02-0.961D-01-0.761D-01 0.172D+00 0.992D+00
 Gap=     0.367 Goal=   None    Shift=    0.000
 Gap=     0.188 Goal=   None    Shift=    0.000
 RMSDP=1.42D-06 MaxDP=4.10D-05 DE=-1.23D-08 OVMax= 1.92D-04

 Cycle  16  Pass 1  IDiag  1:
 E= -552.364171827236     Delta-E=       -0.000000015435 Rises=F Damp=F
 DIIS: error= 1.36D-05 at cycle   6 NSaved=   6.
 NSaved= 6 IEnMin= 6 EnMin= -552.364171827236     IErMin= 4 ErrMin= 1.22D-05
 ErrMax= 1.36D-05  0.00D+00 EMaxC= 1.00D-01 BMatC= 3.65D-09 BMatP= 3.87D-09
 IDIUse=1 WtCom= 1.00D+00 WtEn= 0.00D+00
 Coeff-Com:  0.544D-02-0.526D-01-0.403D-01 0.848D-02 0.492D+00 0.587D+00
 Coeff:      0.544D-02-0.526D-01-0.403D-01 0.848D-02 0.492D+00 0.587D+00
 Gap=     0.367 Goal=   None    Shift=    0.000
 Gap=     0.188 Goal=   None    Shift=    0.000
 RMSDP=8.44D-07 MaxDP=2.38D-05 DE=-1.54D-08 OVMax= 1.18D-04

 Cycle  17  Pass 1  IDiag  1:
 E= -552.364171836590     Delta-E=       -0.000000009354 Rises=F Damp=F
 DIIS: error= 1.41D-05 at cycle   7 NSaved=   7.
 NSaved= 7 IEnMin= 7 EnMin= -552.364171836590     IErMin= 4 ErrMin= 1.22D-05
 ErrMax= 1.41D-05  0.00D+00 EMaxC= 1.00D-01 BMatC= 3.77D-09 BMatP= 3.65D-09
 IDIUse=1 WtCom= 1.00D+00 WtEn= 0.00D+00
 Coeff-Com:  0.138D-01-0.921D-01-0.119D+00-0.183D+00 0.833D+00 0.256D+01
 Coeff-Com: -0.201D+01
 Coeff:      0.138D-01-0.921D-01-0.119D+00-0.183D+00 0.833D+00 0.256D+01
 Coeff:     -0.201D+01
 Gap=     0.367 Goal=   None    Shift=    0.000
 Gap=     0.188 Goal=   None    Shift=    0.000
 RMSDP=1.41D-06 MaxDP=3.82D-05 DE=-9.35D-09 OVMax= 2.01D-04

 Cycle  18  Pass 1  IDiag  1:
 E= -552.364171821466     Delta-E=        0.000000015125 Rises=F Damp=F
 DIIS: error= 1.31D-05 at cycle   8 NSaved=   8.
 NSaved= 8 IEnMin= 7 EnMin= -552.364171836590     IErMin= 4 ErrMin= 1.22D-05
 ErrMax= 1.31D-05  0.00D+00 EMaxC= 1.00D-01 BMatC= 3.43D-09 BMatP= 3.65D-09
 IDIUse=1 WtCom= 1.00D+00 WtEn= 0.00D+00
 Large coefficients: NSaved=  8 BigCof=   12.16 CofMax=   10.00 Det=-9.42D-12
 Inversion failed.  Reducing to  7 matrices.
 Large coefficients: NSaved=  7 BigCof=   11.74 CofMax=   10.00 Det=-9.87D-12
 Inversion failed.  Reducing to  6 matrices.
 Large coefficients: NSaved=  6 BigCof=   10.36 CofMax=   10.00 Det=-1.10D-11
 Inversion failed.  Reducing to  5 matrices.
 Coeff-Com: -0.610D+00-0.108D+01 0.554D+01-0.924D+01 0.640D+01
 Coeff:     -0.610D+00-0.108D+01 0.554D+01-0.924D+01 0.640D+01
 Gap=     0.367 Goal=   None    Shift=    0.000
 Gap=     0.188 Goal=   None    Shift=    0.000
 RMSDP=7.19D-06 MaxDP=1.89D-04 DE= 1.51D-08 OVMax= 1.03D-03

 Cycle  19  Pass 1  IDiag  1:
 E= -552.364171762177     Delta-E=        0.000000059288 Rises=F Damp=F
 DIIS: error= 8.21D-06 at cycle   9 NSaved=   6.
 NSaved= 6 IEnMin= 4 EnMin= -552.364171836590     IErMin= 6 ErrMin= 8.21D-06
 ErrMax= 8.21D-06  0.00D+00 EMaxC= 1.00D-01 BMatC= 1.75D-09 BMatP= 3.43D-09
 IDIUse=1 WtCom= 1.00D+00 WtEn= 0.00D+00
 Coeff-Com: -0.371D+00-0.102D+01 0.961D+00-0.271D+01 0.230D+01 0.184D+01
 Coeff:     -0.371D+00-0.102D+01 0.961D+00-0.271D+01 0.230D+01 0.184D+01
 Gap=     0.367 Goal=   None    Shift=    0.000
 Gap=     0.188 Goal=   None    Shift=    0.000
 RMSDP=7.68D-06 MaxDP=2.09D-04 DE= 5.93D-08 OVMax= 1.10D-03

 Cycle  20  Pass 1  IDiag  1:
 E= -552.364171730825     Delta-E=        0.000000031353 Rises=F Damp=F
 DIIS: error= 2.74D-06 at cycle  10 NSaved=   7.
 NSaved= 7 IEnMin= 4 EnMin= -552.364171836590     IErMin= 7 ErrMin= 2.74D-06
 ErrMax= 2.74D-06  0.00D+00 EMaxC= 1.00D-01 BMatC= 3.79D-10 BMatP= 1.75D-09
 IDIUse=1 WtCom= 1.00D+00 WtEn= 0.00D+00
 Coeff-Com:  0.476D+00 0.401D+00-0.298D+01 0.410D+01-0.262D+01 0.345D+00
 Coeff-Com:  0.127D+01
 Coeff:      0.476D+00 0.401D+00-0.298D+01 0.410D+01-0.262D+01 0.345D+00
 Coeff:      0.127D+01
 Gap=     0.367 Goal=   None    Shift=    0.000
 Gap=     0.188 Goal=   None    Shift=    0.000
 RMSDP=3.64D-06 MaxDP=9.68D-05 DE= 3.14D-08 OVMax= 5.21D-04

 Cycle  21  Pass 1  IDiag  1:
 E= -552.364171726668     Delta-E=        0.000000004156 Rises=F Damp=F
 DIIS: error= 3.51D-07 at cycle  11 NSaved=   8.
 NSaved= 8 IEnMin= 4 EnMin= -552.364171836590     IErMin= 8 ErrMin= 3.51D-07
 ErrMax= 3.51D-07  0.00D+00 EMaxC= 1.00D-01 BMatC= 2.08D-11 BMatP= 3.79D-10
 IDIUse=1 WtCom= 1.00D+00 WtEn= 0.00D+00
 Coeff-Com:  0.337D-01 0.141D+00-0.354D+00 0.615D+00-0.399D+00-0.149D+00
 Coeff-Com:  0.443D-01 0.107D+01
 Coeff:      0.337D-01 0.141D+00-0.354D+00 0.615D+00-0.399D+00-0.149D+00
 Coeff:      0.443D-01 0.107D+01
 Gap=     0.367 Goal=   None    Shift=    0.000
 Gap=     0.188 Goal=   None    Shift=    0.000
 RMSDP=3.79D-07 MaxDP=1.01D-05 DE= 4.16D-09 OVMax= 5.27D-05

 Cycle  22  Pass 1  IDiag  1:
 E= -552.364171726640     Delta-E=        0.000000000029 Rises=F Damp=F
 DIIS: error= 2.14D-07 at cycle  12 NSaved=   9.
 NSaved= 9 IEnMin= 4 EnMin= -552.364171836590     IErMin= 9 ErrMin= 2.14D-07
 ErrMax= 2.14D-07  0.00D+00 EMaxC= 1.00D-01 BMatC= 6.35D-12 BMatP= 2.08D-11
 IDIUse=1 WtCom= 1.00D+00 WtEn= 0.00D+00
 Coeff-Com: -0.499D-01 0.134D-01 0.266D+00-0.343D+00 0.204D+00-0.925D-01
 Coeff-Com: -0.143D+00 0.394D+00 0.752D+00
 Coeff:     -0.499D-01 0.134D-01 0.266D+00-0.343D+00 0.204D+00-0.925D-01
 Coeff:     -0.143D+00 0.394D+00 0.752D+00
 Gap=     0.367 Goal=   None    Shift=    0.000
 Gap=     0.188 Goal=   None    Shift=    0.000
 RMSDP=6.89D-08 MaxDP=1.73D-06 DE= 2.85D-11 OVMax= 9.19D-06

 Cycle  23  Pass 1  IDiag  1:
 E= -552.364171726644     Delta-E=       -0.000000000004 Rises=F Damp=F
 DIIS: error= 9.02D-08 at cycle  13 NSaved=  10.
 NSaved=10 IEnMin= 4 EnMin= -552.364171836590     IErMin=10 ErrMin= 9.02D-08
 ErrMax= 9.02D-08  0.00D+00 EMaxC= 1.00D-01 BMatC= 9.95D-13 BMatP= 6.35D-12
 IDIUse=1 WtCom= 1.00D+00 WtEn= 0.00D+00
 Coeff-Com: -0.237D-01-0.311D-01 0.150D+00-0.234D+00 0.154D+00 0.153D-01
 Coeff-Com: -0.599D-01-0.159D+00 0.257D+00 0.932D+00
 Coeff:     -0.237D-01-0.311D-01 0.150D+00-0.234D+00 0.154D+00 0.153D-01
 Coeff:     -0.599D-01-0.159D+00 0.257D+00 0.932D+00
 Gap=     0.367 Goal=   None    Shift=    0.000
 Gap=     0.188 Goal=   None    Shift=    0.000
 RMSDP=1.84D-08 MaxDP=4.15D-07 DE=-3.75D-12 OVMax= 1.87D-06

 Cycle  24  Pass 1  IDiag  1:
 E= -552.364171726645     Delta-E=       -0.000000000001 Rises=F Damp=F
 DIIS: error= 2.13D-08 at cycle  14 NSaved=  11.
 NSaved=11 IEnMin= 4 EnMin= -552.364171836590     IErMin=11 ErrMin= 2.13D-08
 ErrMax= 2.13D-08  0.00D+00 EMaxC= 1.00D-01 BMatC= 6.38D-14 BMatP= 9.95D-13
 IDIUse=1 WtCom= 1.00D+00 WtEn= 0.00D+00
 Coeff-Com:  0.899D-02 0.657D-02-0.571D-01 0.865D-01-0.547D-01 0.279D-02
 Coeff-Com:  0.249D-01 0.195D-01-0.152D+00-0.198D+00 0.131D+01
 Coeff:      0.899D-02 0.657D-02-0.571D-01 0.865D-01-0.547D-01 0.279D-02
 Coeff:      0.249D-01 0.195D-01-0.152D+00-0.198D+00 0.131D+01
 Gap=     0.367 Goal=   None    Shift=    0.000
 Gap=     0.188 Goal=   None    Shift=    0.000
 RMSDP=1.24D-08 MaxDP=3.28D-07 DE=-9.09D-13 OVMax= 1.70D-06

 Cycle  25  Pass 1  IDiag  1:
 E= -552.364171726645     Delta-E=       -0.000000000001 Rises=F Damp=F
 DIIS: error= 7.49D-09 at cycle  15 NSaved=  12.
 NSaved=12 IEnMin= 4 EnMin= -552.364171836590     IErMin=12 ErrMin= 7.49D-09
 ErrMax= 7.49D-09  0.00D+00 EMaxC= 1.00D-01 BMatC= 1.16D-14 BMatP= 6.38D-14
 IDIUse=1 WtCom= 1.00D+00 WtEn= 0.00D+00
 Coeff-Com:  0.465D-02 0.575D-02-0.301D-01 0.444D-01-0.292D-01-0.109D-02
 Coeff-Com:  0.119D-01 0.262D-01-0.633D-01-0.153D+00 0.216D+00 0.968D+00
 Coeff:      0.465D-02 0.575D-02-0.301D-01 0.444D-01-0.292D-01-0.109D-02
 Coeff:      0.119D-01 0.262D-01-0.633D-01-0.153D+00 0.216D+00 0.968D+00
 Gap=     0.367 Goal=   None    Shift=    0.000
 Gap=     0.188 Goal=   None    Shift=    0.000
 RMSDP=1.23D-08 MaxDP=3.29D-07 DE=-5.68D-13 OVMax= 1.76D-06

 Cycle  26  Pass 1  IDiag  1:
 E= -552.364171726645     Delta-E=        0.000000000000 Rises=F Damp=F
 DIIS: error= 3.08D-09 at cycle  16 NSaved=  13.
 NSaved=13 IEnMin= 4 EnMin= -552.364171836590     IErMin=13 ErrMin= 3.08D-09
 ErrMax= 3.08D-09  0.00D+00 EMaxC= 1.00D-01 BMatC= 2.60D-15 BMatP= 1.16D-14
 IDIUse=1 WtCom= 1.00D+00 WtEn= 0.00D+00
 Coeff-Com: -0.418D-03 0.367D-03 0.181D-02-0.280D-02 0.192D-02-0.738D-03
 Coeff-Com: -0.149D-02 0.423D-02 0.884D-02-0.518D-02-0.175D+00 0.233D+00
 Coeff-Com:  0.935D+00
 Coeff:     -0.418D-03 0.367D-03 0.181D-02-0.280D-02 0.192D-02-0.738D-03
 Coeff:     -0.149D-02 0.423D-02 0.884D-02-0.518D-02-0.175D+00 0.233D+00
 Coeff:      0.935D+00
 Gap=     0.367 Goal=   None    Shift=    0.000
 Gap=     0.188 Goal=   None    Shift=    0.000
 RMSDP=4.82D-09 MaxDP=1.33D-07 DE= 0.00D+00 OVMax= 6.90D-07

 SCF Done:  E(UwB97XD) =  -552.364171727     A.U. after   26 cycles
            NFock= 26  Conv=0.48D-08     -V/T= 2.0044
 <Sx>= 0.0000 <Sy>= 0.0000 <Sz>= 0.5000 <S**2>= 0.7827 S= 0.5162
 <L.S>=  0.00000000000    
 KE= 5.499192638950D+02 PE=-1.695348025374D+03 EE= 3.916460880083D+02
 Annihilation of the first spin contaminant:
 S**2 before annihilation     0.7827,   after     0.7507
 Leave Link  502 at Thu Feb 13 13:20:50 2025, MaxMem=   104857600 cpu:              35.2 elap:              35.4
 (Enter /software/gaussian/G16-C.01/avx2/g16/l601.exe)
 Copying SCF densities to generalized density rwf, IOpCl= 1 IROHF=0.

 **********************************************************************

            Population analysis using the SCF Density.

 **********************************************************************

 Orbital symmetries:
 Alpha Orbitals:
       Occupied  (A) (A) (A) (A) (A) (A) (A) (A) (A) (A) (A) (A)
                 (A) (A) (A) (A) (A) (A) (A) (A) (A) (A)
       Virtual   (A) (A) (A) (A) (A) (A) (A) (A) (A) (A) (A) (A)
                 (A) (A) (A) (A) (A) (A) (A) (A) (A) (A) (A) (A)
                 (A) (A) (A) (A) (A) (A) (A) (A) (A) (A) (A) (A)
                 (A) (A) (A) (A) (A) (A) (A) (A) (A) (A) (A) (A)
                 (A) (A) (A) (A) (A) (A) (A) (A) (A) (A) (A) (A)
                 (A) (A) (A) (A) (A) (A) (A) (A) (A) (A) (A) (A)
 Beta  Orbitals:
       Occupied  (A) (A) (A) (A) (A) (A) (A) (A) (A) (A) (A) (A)
                 (A) (A) (A) (A) (A) (A) (A) (A) (A)
       Virtual   (A) (A) (A) (A) (A) (A) (A) (A) (A) (A) (A) (A)
                 (A) (A) (A) (A) (A) (A) (A) (A) (A) (A) (A) (A)
                 (A) (A) (A) (A) (A) (A) (A) (A) (A) (A) (A) (A)
                 (A) (A) (A) (A) (A) (A) (A) (A) (A) (A) (A) (A)
                 (A) (A) (A) (A) (A) (A) (A) (A) (A) (A) (A) (A)
                 (A) (A) (A) (A) (A) (A) (A) (A) (A) (A) (A) (A)
                 (A)
 The electronic state is 2-A.
 Alpha  occ. eigenvalues --  -89.33273 -10.56423 -10.56397 -10.55554 -10.55550
 Alpha  occ. eigenvalues --   -8.38183  -6.33735  -6.33245  -6.32848  -1.23746
 Alpha  occ. eigenvalues --   -1.09634  -1.05270  -0.89251  -0.87846  -0.84048
 Alpha  occ. eigenvalues --   -0.73003  -0.72835  -0.72097  -0.70423  -0.67917
 Alpha  occ. eigenvalues --   -0.61117  -0.55255
 Alpha virt. eigenvalues --   -0.18584  -0.12013  -0.11193  -0.04329  -0.02705
 Alpha virt. eigenvalues --    0.02311   0.04141   0.04289   0.12209   0.17075
 Alpha virt. eigenvalues --    0.19222   0.25902   0.25909   0.26051   0.29830
 Alpha virt. eigenvalues --    0.30842   0.33842   0.37509   0.38277   0.40128
 Alpha virt. eigenvalues --    0.43235   0.43486   0.44411   0.51584   0.52827
 Alpha virt. eigenvalues --    0.54098   0.54825   0.57292   0.58431   0.59492
 Alpha virt. eigenvalues --    0.60440   0.62346   0.62726   0.69373   0.74513
 Alpha virt. eigenvalues --    0.81506   0.95935   0.98814   1.02479   1.02534
 Alpha virt. eigenvalues --    1.10802   1.11326   1.13475   1.38106   1.43310
 Alpha virt. eigenvalues --    1.49019   1.52602   1.56516   1.60728   1.62390
 Alpha virt. eigenvalues --    1.66093   1.75488   1.78884   1.82071   1.84463
 Alpha virt. eigenvalues --    1.87031   1.88254   1.94711   2.00268   2.01079
 Alpha virt. eigenvalues --    2.18586   2.21971   2.22118   2.24890   2.38000
 Alpha virt. eigenvalues --    2.52243   2.52863   2.58410   2.60730   2.90129
 Alpha virt. eigenvalues --    2.93561   3.29959
  Beta  occ. eigenvalues --  -89.32897 -10.56032 -10.56009 -10.55740 -10.55736
  Beta  occ. eigenvalues --   -8.37819  -6.32979  -6.32593  -6.32530  -1.22561
  Beta  occ. eigenvalues --   -1.07074  -1.05089  -0.88467  -0.87260  -0.83703
  Beta  occ. eigenvalues --   -0.72738  -0.71535  -0.70106  -0.68746  -0.67084
  Beta  occ. eigenvalues --   -0.55040
  Beta virt. eigenvalues --   -0.36243  -0.16481  -0.11683  -0.08099  -0.03251
  Beta virt. eigenvalues --   -0.02590   0.02266   0.04456   0.04660   0.12566
  Beta virt. eigenvalues --    0.17639   0.19726   0.26086   0.26118   0.27234
  Beta virt. eigenvalues --    0.30094   0.31191   0.34766   0.37888   0.38469
  Beta virt. eigenvalues --    0.40438   0.44694   0.45585   0.46610   0.51624
  Beta virt. eigenvalues --    0.53461   0.55243   0.55760   0.57642   0.58793
  Beta virt. eigenvalues --    0.59736   0.62559   0.62954   0.63094   0.69598
  Beta virt. eigenvalues --    0.75246   0.81627   0.97417   0.99087   1.02728
  Beta virt. eigenvalues --    1.03510   1.11133   1.12815   1.13515   1.38277
  Beta virt. eigenvalues --    1.43650   1.49311   1.52661   1.56591   1.62263
  Beta virt. eigenvalues --    1.62740   1.66346   1.75979   1.79740   1.82009
  Beta virt. eigenvalues --    1.84390   1.87098   1.88370   1.95000   2.00896
  Beta virt. eigenvalues --    2.01667   2.18673   2.22408   2.22440   2.26986
  Beta virt. eigenvalues --    2.39050   2.52965   2.53491   2.58655   2.60757
  Beta virt. eigenvalues --    2.90591   2.93582   3.30317
     Alpha Molecular Orbital Coefficients:
                           1         2         3         4         5
                           O         O         O         O         O
     Eigenvalues --   -89.33273 -10.56423 -10.56397 -10.55554 -10.55550
   1 1   S  1S          0.99425  -0.00000  -0.00000   0.00002   0.00008
   2        2S         -0.02174  -0.00001  -0.00000   0.00019   0.00065
   3        3S          0.01048   0.00010   0.00001  -0.00036  -0.00118
   4        4S         -0.00923  -0.00429  -0.00049   0.00193   0.00641
   5        5PX         0.00021   0.00003   0.00000  -0.00008  -0.00026
   6        5PY         0.00000  -0.00000   0.00003   0.00026  -0.00008
   7        5PZ        -0.00000  -0.00000   0.00000   0.00000   0.00000
   8        6PX         0.00074   0.00008   0.00001  -0.00023  -0.00076
   9        6PY         0.00000  -0.00002   0.00021   0.00074  -0.00022
  10        6PZ        -0.00000  -0.00000   0.00000   0.00000  -0.00000
  11        7PX        -0.00245  -0.00123  -0.00014   0.00035   0.00115
  12        7PY        -0.00000   0.00004  -0.00037  -0.00085   0.00026
  13        7PZ         0.00000   0.00000   0.00000  -0.00000   0.00000
  14        8D 0        0.00015   0.00003   0.00000   0.00050   0.00166
  15        8D+1        0.00000   0.00000  -0.00000   0.00000   0.00000
  16        8D-1       -0.00000  -0.00000  -0.00000  -0.00000  -0.00000
  17        8D+2       -0.00002   0.00056   0.00006  -0.00002  -0.00005
  18        8D-2        0.00000  -0.00001   0.00011   0.00221  -0.00067
  19 2   C  1S          0.00007   0.02468  -0.01987   0.87075   0.46727
  20        2S         -0.00030  -0.00207   0.00129   0.04011   0.02079
  21        3S          0.00301   0.00984  -0.00993  -0.02463  -0.01531
  22        4PX         0.00015  -0.00174   0.00160   0.00030   0.00012
  23        4PY        -0.00011  -0.00061   0.00042   0.00000  -0.00011
  24        4PZ        -0.00000  -0.00000   0.00000   0.00000   0.00000
  25        5PX        -0.00059   0.00038  -0.00276  -0.00114  -0.00073
  26        5PY         0.00063   0.00290   0.00140  -0.00355  -0.00073
  27        5PZ         0.00000  -0.00000  -0.00000  -0.00000  -0.00000
  28        6D 0        0.00017   0.00069  -0.00075  -0.00180  -0.00106
  29        6D+1        0.00000  -0.00000   0.00000   0.00000  -0.00000
  30        6D-1       -0.00000  -0.00000   0.00000  -0.00000  -0.00000
  31        6D+2       -0.00002  -0.00061   0.00028  -0.00039  -0.00047
  32        6D-2        0.00040  -0.00066   0.00075   0.00138   0.00088
  33 3   C  1S          0.00001   0.77377  -0.61421  -0.02721  -0.01443
  34        2S         -0.00017   0.03445  -0.03163  -0.00469  -0.00270
  35        3S         -0.00054  -0.02024   0.03134   0.01237   0.00486
  36        4PX         0.00007  -0.00017  -0.00000   0.00187   0.00117
  37        4PY        -0.00004  -0.00120  -0.00169   0.00083   0.00076
  38        4PZ        -0.00000  -0.00000   0.00000   0.00000   0.00000
  39        5PX        -0.00004   0.00342  -0.00368   0.00200  -0.00290
  40        5PY         0.00030  -0.00152   0.00060   0.00106  -0.00087
  41        5PZ         0.00000   0.00000  -0.00000  -0.00000   0.00000
  42        6D 0       -0.00004  -0.00097   0.00223   0.00114   0.00038
  43        6D+1       -0.00000   0.00000  -0.00000  -0.00000  -0.00000
  44        6D-1        0.00000   0.00000   0.00000  -0.00000  -0.00000
  45        6D+2       -0.00003   0.00120   0.00066  -0.00092  -0.00060
  46        6D-2       -0.00003  -0.00047   0.00061  -0.00031  -0.00045
  47 4   C  1S          0.00001   0.61495   0.77318   0.01476  -0.02718
  48        2S         -0.00017   0.02641   0.03859   0.00242  -0.00485
  49        3S         -0.00054  -0.01264  -0.03510  -0.00762   0.01090
  50        4PX         0.00007  -0.00016  -0.00003  -0.00091   0.00201
  51        4PY         0.00004   0.00155  -0.00138   0.00027  -0.00109
  52        4PZ        -0.00000   0.00000   0.00000   0.00000  -0.00000
  53        5PX        -0.00004   0.00250   0.00436  -0.00327  -0.00131
  54        5PY        -0.00030   0.00135   0.00093   0.00137   0.00014
  55        5PZ        -0.00000  -0.00000  -0.00000  -0.00000  -0.00000
  56        6D 0       -0.00004  -0.00044  -0.00239  -0.00073   0.00095
  57        6D+1       -0.00000   0.00000   0.00000  -0.00000   0.00000
  58        6D-1        0.00000   0.00000  -0.00000   0.00000  -0.00000
  59        6D+2       -0.00003   0.00132  -0.00037   0.00043  -0.00101
  60        6D-2        0.00003   0.00032   0.00070  -0.00001   0.00055
  61 5   C  1S          0.00007   0.01963   0.02503  -0.46719   0.87079
  62        2S         -0.00030  -0.00172  -0.00172  -0.02192   0.03950
  63        3S          0.00301   0.00733   0.01190   0.01206  -0.02637
  64        4PX         0.00015  -0.00134  -0.00195  -0.00018   0.00026
  65        4PY         0.00011   0.00050   0.00055   0.00007   0.00009
  66        4PZ        -0.00000   0.00000   0.00000   0.00000  -0.00000
  67        5PX        -0.00059  -0.00025   0.00277   0.00055  -0.00124
  68        5PY        -0.00063  -0.00315   0.00071  -0.00256   0.00257
  69        5PZ        -0.00000   0.00000  -0.00000   0.00000   0.00000
  70        6D 0        0.00017   0.00050   0.00089   0.00091  -0.00188
  71        6D+1       -0.00000   0.00000   0.00000   0.00000  -0.00000
  72        6D-1       -0.00000  -0.00000  -0.00000   0.00000  -0.00000
  73        6D+2       -0.00002  -0.00053  -0.00041   0.00007  -0.00060
  74        6D-2       -0.00040   0.00048   0.00088   0.00066  -0.00150
  75 6   H  1S         -0.00023   0.00023   0.00040  -0.00458  -0.00217
  76        2S         -0.00015  -0.00041   0.00164   0.00476   0.00317
  77        3PX         0.00002   0.00035  -0.00006  -0.00054  -0.00032
  78        3PY        -0.00003   0.00013  -0.00030  -0.00239  -0.00136
  79        3PZ        -0.00000  -0.00000   0.00000   0.00000   0.00000
  80 7   H  1S          0.00008  -0.00394   0.00295  -0.00016   0.00044
  81        2S          0.00017   0.00386  -0.00500  -0.00212  -0.00005
  82        3PX        -0.00001   0.00170  -0.00153  -0.00072  -0.00016
  83        3PY        -0.00001  -0.00094   0.00138  -0.00003   0.00011
  84        3PZ        -0.00000  -0.00000   0.00000  -0.00000  -0.00000
  85 8   H  1S          0.00008  -0.00317  -0.00376   0.00037   0.00028
  86        2S          0.00017   0.00263   0.00574   0.00174  -0.00122
  87        3PX        -0.00001   0.00131   0.00187   0.00051  -0.00053
  88        3PY         0.00002   0.00060   0.00156  -0.00008  -0.00007
  89        3PZ        -0.00000   0.00000   0.00000   0.00000  -0.00000
  90 9   H  1S         -0.00023   0.00032  -0.00034   0.00262  -0.00434
  91        2S         -0.00015  -0.00003  -0.00169  -0.00221   0.00528
  92        3PX         0.00002   0.00033   0.00013   0.00027  -0.00056
  93        3PY         0.00003  -0.00006  -0.00032  -0.00124   0.00245
  94        3PZ         0.00000  -0.00000   0.00000   0.00000  -0.00000
                           6         7         8         9        10
                           O         O         O         O         O
     Eigenvalues --    -8.38183  -6.33735  -6.33245  -6.32848  -1.23746
   1 1   S  1S          0.30650   0.00000   0.00000   0.00269  -0.04686
   2        2S          1.02102   0.00000   0.00000   0.00979  -0.29086
   3        3S          0.05056  -0.00000  -0.00000  -0.00438   0.41326
   4        4S         -0.02725   0.00000  -0.00000   0.00862   0.15680
   5        5PX        -0.00779   0.00000  -0.00010   0.98207   0.05450
   6        5PY        -0.00000  -0.00000   0.98196   0.00010   0.00001
   7        5PZ         0.00000   0.98230   0.00000  -0.00000  -0.00000
   8        6PX         0.00267  -0.00000   0.00001  -0.05010   0.08897
   9        6PY         0.00000   0.00000  -0.05042  -0.00001   0.00002
  10        6PZ        -0.00000  -0.04911  -0.00000   0.00000  -0.00000
  11        7PX        -0.00582   0.00000  -0.00000   0.01172   0.06864
  12        7PY        -0.00000   0.00000   0.01011   0.00000   0.00001
  13        7PZ         0.00000   0.00847   0.00000  -0.00000  -0.00000
  14        8D 0        0.00036   0.00000   0.00000   0.00036  -0.01727
  15        8D+1        0.00000  -0.00034  -0.00000   0.00000  -0.00000
  16        8D-1       -0.00000  -0.00000   0.00000  -0.00000   0.00000
  17        8D+2       -0.00011  -0.00000   0.00000  -0.00051   0.00821
  18        8D-2        0.00000   0.00000  -0.00152  -0.00000   0.00000
  19 2   C  1S          0.00018   0.00000   0.00010  -0.00008  -0.11627
  20        2S         -0.00106  -0.00000   0.00011   0.00034   0.22476
  21        3S          0.00739   0.00000  -0.00467  -0.00584   0.02067
  22        4PX         0.00055   0.00000   0.00068  -0.00033   0.00408
  23        4PY        -0.00039  -0.00000  -0.00031   0.00029   0.08590
  24        4PZ        -0.00000   0.00017  -0.00000   0.00000   0.00000
  25        5PX        -0.00136  -0.00000  -0.00497   0.00056   0.00488
  26        5PY         0.00141   0.00000  -0.00425  -0.00109   0.01449
  27        5PZ         0.00000  -0.00136  -0.00000  -0.00000   0.00000
  28        6D 0        0.00048   0.00000   0.00067  -0.00048  -0.01038
  29        6D+1        0.00000  -0.00013   0.00000  -0.00000   0.00000
  30        6D-1       -0.00000   0.00017  -0.00000   0.00000   0.00000
  31        6D+2       -0.00002  -0.00000  -0.00025  -0.00028  -0.00150
  32        6D-2        0.00084   0.00000   0.00111  -0.00090  -0.00208
  33 3   C  1S          0.00000  -0.00000  -0.00002   0.00002  -0.11283
  34        2S         -0.00029   0.00000  -0.00002   0.00024   0.21649
  35        3S         -0.00127  -0.00000   0.01099   0.00110   0.04577
  36        4PX         0.00005  -0.00000   0.00003  -0.00006  -0.06779
  37        4PY        -0.00009   0.00000  -0.00000  -0.00003   0.04524
  38        4PZ        -0.00000   0.00001   0.00000  -0.00000  -0.00000
  39        5PX        -0.00006   0.00000  -0.00470  -0.00001  -0.01728
  40        5PY         0.00078  -0.00000   0.00148  -0.00059   0.01093
  41        5PZ         0.00000   0.00023  -0.00000  -0.00000  -0.00000
  42        6D 0       -0.00010   0.00000  -0.00009   0.00013  -0.00652
  43        6D+1       -0.00000   0.00000   0.00000   0.00000   0.00000
  44        6D-1        0.00000  -0.00008   0.00000  -0.00000  -0.00000
  45        6D+2       -0.00000  -0.00000  -0.00015  -0.00007   0.00035
  46        6D-2       -0.00009   0.00000   0.00004   0.00025  -0.00088
  47 4   C  1S          0.00000  -0.00000   0.00002   0.00002  -0.11280
  48        2S         -0.00029  -0.00000   0.00002   0.00024   0.21644
  49        3S         -0.00127   0.00000  -0.01098   0.00110   0.04574
  50        4PX         0.00005   0.00000  -0.00003  -0.00006  -0.06776
  51        4PY         0.00009   0.00000  -0.00000   0.00003  -0.04527
  52        4PZ         0.00000   0.00001  -0.00000  -0.00000   0.00000
  53        5PX        -0.00006  -0.00000   0.00470  -0.00001  -0.01727
  54        5PY        -0.00078  -0.00000   0.00148   0.00060  -0.01093
  55        5PZ        -0.00000   0.00023  -0.00000   0.00000   0.00000
  56        6D 0       -0.00010  -0.00000   0.00009   0.00013  -0.00652
  57        6D+1       -0.00000   0.00000   0.00000  -0.00000  -0.00000
  58        6D-1        0.00000   0.00008   0.00000  -0.00000  -0.00000
  59        6D+2       -0.00000  -0.00000   0.00015  -0.00007   0.00034
  60        6D-2        0.00009   0.00000   0.00004  -0.00025   0.00088
  61 5   C  1S          0.00018  -0.00000  -0.00010  -0.00008  -0.11626
  62        2S         -0.00106   0.00000  -0.00011   0.00034   0.22474
  63        3S          0.00739  -0.00000   0.00467  -0.00584   0.02067
  64        4PX         0.00055  -0.00000  -0.00068  -0.00033   0.00407
  65        4PY         0.00039  -0.00000  -0.00031  -0.00029  -0.08590
  66        4PZ         0.00000   0.00017   0.00000  -0.00000  -0.00000
  67        5PX        -0.00136   0.00000   0.00497   0.00056   0.00488
  68        5PY        -0.00141   0.00000  -0.00425   0.00109  -0.01448
  69        5PZ        -0.00000  -0.00136  -0.00000   0.00000   0.00000
  70        6D 0        0.00048  -0.00000  -0.00067  -0.00048  -0.01038
  71        6D+1       -0.00000  -0.00013  -0.00000   0.00000  -0.00000
  72        6D-1       -0.00000  -0.00017   0.00000   0.00000   0.00000
  73        6D+2       -0.00002  -0.00000   0.00025  -0.00028  -0.00150
  74        6D-2       -0.00084   0.00000   0.00111   0.00090   0.00208
  75 6   H  1S         -0.00044   0.00000  -0.00104   0.00016   0.03301
  76        2S         -0.00026   0.00000  -0.00103   0.00100   0.00949
  77        3PX        -0.00003   0.00000   0.00002  -0.00014   0.00120
  78        3PY         0.00009  -0.00000   0.00003   0.00012   0.00554
  79        3PZ        -0.00000   0.00015   0.00000   0.00000  -0.00000
  80 7   H  1S          0.00018  -0.00000   0.00031  -0.00002   0.03110
  81        2S          0.00035  -0.00000   0.00029  -0.00027   0.00672
  82        3PX        -0.00001   0.00000   0.00006  -0.00007  -0.00495
  83        3PY        -0.00006   0.00000   0.00004   0.00009   0.00324
  84        3PZ        -0.00000  -0.00003   0.00000   0.00000  -0.00000
  85 8   H  1S          0.00018   0.00000  -0.00031  -0.00002   0.03110
  86        2S          0.00035   0.00000  -0.00029  -0.00027   0.00672
  87        3PX        -0.00001  -0.00000  -0.00006  -0.00007  -0.00495
  88        3PY         0.00006   0.00000   0.00004  -0.00009  -0.00324
  89        3PZ         0.00000  -0.00003   0.00000  -0.00000  -0.00000
  90 9   H  1S         -0.00044  -0.00000   0.00104   0.00016   0.03300
  91        2S         -0.00026  -0.00000   0.00103   0.00100   0.00949
  92        3PX        -0.00003  -0.00000  -0.00002  -0.00014   0.00120
  93        3PY        -0.00009  -0.00000   0.00003  -0.00012  -0.00554
  94        3PZ         0.00000   0.00015   0.00000  -0.00000   0.00000
                          11        12        13        14        15
                           O         O         O         O         O
     Eigenvalues --    -1.09634  -1.05270  -0.89251  -0.87846  -0.84048
   1 1   S  1S         -0.05508  -0.00002  -0.03461  -0.00000  -0.01012
   2        2S         -0.34654  -0.00016  -0.22190  -0.00001  -0.06539
   3        3S          0.51711   0.00023   0.34403   0.00002   0.10403
   4        4S          0.18172   0.00009   0.19607   0.00002   0.05508
   5        5PX         0.01799   0.00001  -0.04210   0.00002  -0.06602
   6        5PY         0.00004  -0.06655   0.00000  -0.12291  -0.00003
   7        5PZ        -0.00000  -0.00000   0.00000  -0.00000   0.00000
   8        6PX         0.03305   0.00001  -0.07206   0.00003  -0.11657
   9        6PY         0.00006  -0.11281   0.00000  -0.21916  -0.00005
  10        6PZ        -0.00000  -0.00000   0.00000  -0.00000   0.00000
  11        7PX         0.01724   0.00001  -0.04882   0.00003  -0.10505
  12        7PY         0.00004  -0.07901   0.00001  -0.16315  -0.00004
  13        7PZ        -0.00000   0.00000  -0.00000  -0.00000   0.00000
  14        8D 0       -0.00193   0.00000   0.01545  -0.00000   0.01117
  15        8D+1        0.00000  -0.00000   0.00000  -0.00000   0.00000
  16        8D-1        0.00000   0.00000   0.00000   0.00000  -0.00000
  17        8D+2       -0.01217   0.00000  -0.00099   0.00002  -0.03823
  18        8D-2        0.00002  -0.03884  -0.00000  -0.04514  -0.00001
  19 2   C  1S         -0.00269  -0.16783   0.12847  -0.06704  -0.03105
  20        2S          0.00955   0.33581  -0.26776   0.14215   0.06459
  21        3S          0.00131   0.12268  -0.11245   0.13903   0.06966
  22        4PX        -0.12902   0.05026  -0.07232  -0.21179  -0.05992
  23        4PY         0.01256   0.02501   0.07251  -0.02639  -0.20648
  24        4PZ        -0.00000   0.00000  -0.00000   0.00000   0.00000
  25        5PX        -0.02903   0.01872  -0.00383  -0.03816  -0.03331
  26        5PY         0.01140   0.03309  -0.00530   0.04568  -0.08260
  27        5PZ        -0.00000   0.00000  -0.00000   0.00000   0.00000
  28        6D 0       -0.00017  -0.00865   0.00377  -0.00409   0.00183
  29        6D+1       -0.00000   0.00000  -0.00000  -0.00000  -0.00000
  30        6D-1        0.00000   0.00000   0.00000  -0.00000  -0.00000
  31        6D+2       -0.00271   0.00661   0.00104  -0.00330   0.00934
  32        6D-2       -0.01421   0.00020  -0.00356  -0.00871  -0.00313
  33 3   C  1S          0.15440  -0.11235  -0.05309   0.11784  -0.02157
  34        2S         -0.30989   0.22767   0.11339  -0.25064   0.04402
  35        3S         -0.08015   0.02735   0.04287  -0.23956   0.06565
  36        4PX         0.00455  -0.08340   0.18857  -0.03582   0.20946
  37        4PY        -0.07581  -0.09445   0.16880   0.11388  -0.14592
  38        4PZ         0.00000  -0.00000   0.00000   0.00000   0.00000
  39        5PX         0.00862  -0.01156   0.04510   0.04749   0.07620
  40        5PY        -0.02880  -0.03126   0.06125  -0.02300  -0.05181
  41        5PZ        -0.00000   0.00000   0.00000   0.00000   0.00000
  42        6D 0        0.00451  -0.00161   0.00010  -0.00016   0.00145
  43        6D+1       -0.00000   0.00000  -0.00000  -0.00000  -0.00000
  44        6D-1        0.00000   0.00000  -0.00000  -0.00000   0.00000
  45        6D+2        0.00779   0.01063  -0.00928  -0.00434  -0.00171
  46        6D-2       -0.00099   0.00749  -0.00302   0.00225   0.00940
  47 4   C  1S          0.15427   0.11252  -0.05304  -0.11786  -0.02161
  48        2S         -0.30962  -0.22800   0.11328   0.25067   0.04413
  49        3S         -0.08009  -0.02745   0.04277   0.23952   0.06573
  50        4PX         0.00445   0.08340   0.18856   0.03577   0.20936
  51        4PY         0.07591  -0.09430  -0.16879   0.11371   0.14599
  52        4PZ        -0.00000  -0.00000   0.00000   0.00000   0.00000
  53        5PX         0.00860   0.01158   0.04512  -0.04749   0.07615
  54        5PY         0.02883  -0.03121  -0.06123  -0.02307   0.05180
  55        5PZ         0.00000   0.00000   0.00000   0.00000   0.00000
  56        6D 0        0.00451   0.00162   0.00010   0.00016   0.00145
  57        6D+1        0.00000   0.00000   0.00000  -0.00000   0.00000
  58        6D-1        0.00000  -0.00000  -0.00000   0.00000   0.00000
  59        6D+2        0.00780  -0.01062  -0.00929   0.00433  -0.00170
  60        6D-2        0.00098   0.00749   0.00301   0.00226  -0.00940
  61 5   C  1S         -0.00286   0.16782   0.12847   0.06707  -0.03103
  62        2S          0.00988  -0.33579  -0.26776  -0.14222   0.06456
  63        3S          0.00140  -0.12267  -0.11244  -0.13905   0.06963
  64        4PX        -0.12896  -0.05037  -0.07234   0.21179  -0.05983
  65        4PY        -0.01263   0.02501  -0.07251  -0.02643   0.20640
  66        4PZ         0.00000   0.00000   0.00000   0.00000   0.00000
  67        5PX        -0.02902  -0.01875  -0.00382   0.03817  -0.03329
  68        5PY        -0.01143   0.03308   0.00529   0.04566   0.08259
  69        5PZ        -0.00000   0.00000   0.00000   0.00000  -0.00000
  70        6D 0       -0.00018   0.00865   0.00377   0.00409   0.00183
  71        6D+1        0.00000   0.00000   0.00000  -0.00000   0.00000
  72        6D-1       -0.00000  -0.00000  -0.00000   0.00000  -0.00000
  73        6D+2       -0.00271  -0.00661   0.00104   0.00329   0.00934
  74        6D-2        0.01421   0.00021   0.00356  -0.00871   0.00313
  75 6   H  1S          0.01259   0.10066  -0.14574   0.11969   0.16091
  76        2S          0.00308   0.01481  -0.02816   0.02741   0.00237
  77        3PX        -0.00142   0.00417  -0.00542  -0.00060   0.00289
  78        3PY         0.00180   0.01139  -0.01147   0.00847   0.01108
  79        3PZ        -0.00000  -0.00000   0.00000  -0.00000  -0.00000
  80 7   H  1S         -0.07922   0.06642   0.08588  -0.16554   0.17605
  81        2S         -0.01059   0.00551   0.01501  -0.03495   0.00741
  82        3PX         0.00874  -0.00842  -0.00344   0.01157  -0.00968
  83        3PY        -0.00660   0.00325   0.00691  -0.00571   0.00649
  84        3PZ         0.00000  -0.00000  -0.00000  -0.00000   0.00000
  85 8   H  1S         -0.07915  -0.06651   0.08580   0.16549   0.17607
  86        2S         -0.01059  -0.00553   0.01500   0.03496   0.00742
  87        3PX         0.00873   0.00842  -0.00343  -0.01157  -0.00968
  88        3PY         0.00660   0.00326  -0.00691  -0.00571  -0.00649
  89        3PZ         0.00000   0.00000  -0.00000  -0.00000  -0.00000
  90 9   H  1S          0.01268  -0.10063  -0.14573  -0.11975   0.16082
  91        2S          0.00309  -0.01480  -0.02816  -0.02741   0.00235
  92        3PX        -0.00141  -0.00418  -0.00542   0.00060   0.00289
  93        3PY        -0.00181   0.01138   0.01147   0.00848  -0.01108
  94        3PZ         0.00000  -0.00000  -0.00000  -0.00000   0.00000
                          16        17        18        19        20
                           O         O         O         O         O
     Eigenvalues --    -0.73003  -0.72835  -0.72097  -0.70423  -0.67917
   1 1   S  1S         -0.00000   0.00001   0.01624  -0.00000   0.01781
   2        2S         -0.00000   0.00009   0.10560  -0.00003   0.11589
   3        3S          0.00000  -0.00014  -0.16165   0.00004  -0.17216
   4        4S          0.00000  -0.00012  -0.16963   0.00004  -0.14235
   5        5PX         0.00000   0.00009   0.04656  -0.00004   0.22030
   6        5PY         0.00000   0.01995   0.00004   0.16878   0.00002
   7        5PZ         0.17176  -0.00002   0.00000  -0.00000  -0.00000
   8        6PX         0.00000   0.00016   0.08498  -0.00007   0.40988
   9        6PY         0.00001   0.04048   0.00007   0.31748   0.00004
  10        6PZ         0.31654  -0.00003   0.00000  -0.00000  -0.00000
  11        7PX         0.00000   0.00015   0.06020  -0.00007   0.42097
  12        7PY         0.00000   0.00953   0.00007   0.28126   0.00004
  13        7PZ         0.32877  -0.00003   0.00000  -0.00000  -0.00000
  14        8D 0       -0.00000  -0.00002  -0.01822   0.00001  -0.03803
  15        8D+1        0.04566  -0.00000   0.00000  -0.00000  -0.00000
  16        8D-1        0.00001  -0.00000   0.00000  -0.00000   0.00000
  17        8D+2        0.00000  -0.00000  -0.02725  -0.00001   0.00978
  18        8D-2        0.00000   0.02593  -0.00000   0.05582  -0.00000
  19 2   C  1S          0.00000   0.02759  -0.02353  -0.03377  -0.01430
  20        2S         -0.00001  -0.07474   0.04631   0.06787   0.03878
  21        3S         -0.00001  -0.08781   0.06717   0.06376   0.01641
  22        4PX        -0.00001  -0.15287  -0.21281   0.16471  -0.15388
  23        4PY        -0.00003  -0.25763  -0.12124  -0.22142   0.13040
  24        4PZ         0.20896  -0.00002   0.00000  -0.00000  -0.00000
  25        5PX        -0.00001  -0.08021  -0.09962   0.05175  -0.02366
  26        5PY        -0.00001  -0.11530  -0.02887  -0.08155   0.04894
  27        5PZ         0.10541  -0.00001   0.00000  -0.00000  -0.00000
  28        6D 0        0.00000   0.00057  -0.00212   0.00394  -0.00458
  29        6D+1        0.00006  -0.00000  -0.00000   0.00000  -0.00000
  30        6D-1        0.01653  -0.00000  -0.00000  -0.00000   0.00000
  31        6D+2       -0.00000  -0.00153  -0.01175  -0.00916  -0.00733
  32        6D-2       -0.00000  -0.00159   0.00360   0.01712  -0.01977
  33 3   C  1S          0.00000   0.00142   0.00673   0.03554   0.02762
  34        2S         -0.00000  -0.01353  -0.00407  -0.07613  -0.07357
  35        3S          0.00001   0.08891  -0.00057  -0.10576  -0.03835
  36        4PX         0.00003   0.27737   0.06720  -0.15670   0.16902
  37        4PY        -0.00000  -0.03372   0.35181   0.01246  -0.11445
  38        4PZ         0.22952  -0.00002   0.00000  -0.00000   0.00000
  39        5PX        -0.00000   0.03093   0.01879  -0.04602   0.07866
  40        5PY        -0.00000  -0.03934   0.10323  -0.01676  -0.03292
  41        5PZ         0.10981  -0.00001   0.00000  -0.00000   0.00000
  42        6D 0       -0.00000  -0.00033  -0.00032  -0.00151  -0.00028
  43        6D+1       -0.01180   0.00000  -0.00000   0.00000  -0.00000
  44        6D-1        0.00879  -0.00000  -0.00000  -0.00000   0.00000
  45        6D+2       -0.00000  -0.00856  -0.01370  -0.00647   0.00921
  46        6D-2       -0.00000  -0.01250   0.00182   0.01515  -0.00197
  47 4   C  1S          0.00000  -0.00140   0.00675  -0.03555   0.02761
  48        2S          0.00000   0.01349  -0.00413   0.07616  -0.07357
  49        3S         -0.00001  -0.08894  -0.00052   0.10577  -0.03826
  50        4PX        -0.00003  -0.27727   0.06752   0.15667   0.16917
  51        4PY        -0.00000  -0.03400  -0.35176   0.01259   0.11450
  52        4PZ         0.22944  -0.00002   0.00000  -0.00000   0.00000
  53        5PX        -0.00000  -0.03090   0.01885   0.04602   0.07866
  54        5PY        -0.00000  -0.03942  -0.10316  -0.01673   0.03294
  55        5PZ         0.10976  -0.00001   0.00000  -0.00000   0.00000
  56        6D 0        0.00000   0.00032  -0.00032   0.00150  -0.00028
  57        6D+1       -0.01179   0.00000  -0.00000   0.00000   0.00000
  58        6D-1       -0.00880   0.00000  -0.00000   0.00000   0.00000
  59        6D+2        0.00000   0.00856  -0.01370   0.00646   0.00920
  60        6D-2       -0.00000  -0.01249  -0.00181   0.01515   0.00198
  61 5   C  1S         -0.00000  -0.02761  -0.02350   0.03378  -0.01428
  62        2S          0.00001   0.07479   0.04623  -0.06790   0.03872
  63        3S          0.00001   0.08785   0.06707  -0.06380   0.01631
  64        4PX         0.00002   0.15270  -0.21304  -0.16458  -0.15396
  65        4PY        -0.00003  -0.25762   0.12133  -0.22148  -0.13031
  66        4PZ         0.20893  -0.00002   0.00000  -0.00000   0.00000
  67        5PX         0.00001   0.08017  -0.09974  -0.05169  -0.02371
  68        5PY        -0.00001  -0.11532   0.02892  -0.08155  -0.04887
  69        5PZ         0.10541  -0.00001   0.00000  -0.00000   0.00000
  70        6D 0       -0.00000  -0.00057  -0.00212  -0.00394  -0.00458
  71        6D+1        0.00005  -0.00000   0.00000   0.00000   0.00000
  72        6D-1       -0.01653   0.00000  -0.00000   0.00000   0.00000
  73        6D+2        0.00000   0.00151  -0.01175   0.00916  -0.00734
  74        6D-2        0.00000  -0.00159  -0.00359   0.01712   0.01977
  75 6   H  1S          0.00002   0.19303   0.17889   0.18213  -0.05542
  76        2S          0.00000   0.04034   0.04514   0.04488  -0.01182
  77        3PX         0.00000   0.00147  -0.00028   0.00653  -0.00446
  78        3PY         0.00000   0.00963   0.00881   0.00838  -0.00150
  79        3PZ         0.00481  -0.00000  -0.00000  -0.00000   0.00000
  80 7   H  1S          0.00002   0.19999  -0.12001  -0.16653   0.14445
  81        2S          0.00001   0.05124  -0.03398  -0.04678   0.03951
  82        3PX        -0.00000  -0.00529   0.00864   0.00562  -0.00489
  83        3PY         0.00000   0.00852   0.00236  -0.00567   0.00364
  84        3PZ         0.00492  -0.00000   0.00000  -0.00000   0.00000
  85 8   H  1S         -0.00002  -0.20004  -0.11983   0.16657   0.14459
  86        2S         -0.00001  -0.05125  -0.03394   0.04680   0.03955
  87        3PX         0.00000   0.00529   0.00863  -0.00563  -0.00490
  88        3PY         0.00000   0.00852  -0.00237  -0.00567  -0.00364
  89        3PZ         0.00492  -0.00000   0.00000  -0.00000  -0.00000
  90 9   H  1S         -0.00002  -0.19295   0.17897  -0.18221  -0.05533
  91        2S         -0.00000  -0.04030   0.04516  -0.04491  -0.01180
  92        3PX        -0.00000  -0.00148  -0.00028  -0.00653  -0.00446
  93        3PY         0.00000   0.00963  -0.00882   0.00838   0.00150
  94        3PZ         0.00481  -0.00000   0.00000  -0.00000  -0.00000
                          21        22        23        24        25
                           O         O         V         V         V
     Eigenvalues --    -0.61117  -0.55255  -0.18584  -0.12013  -0.11193
   1 1   S  1S         -0.00000   0.00000  -0.00000   0.00001  -0.00000
   2        2S         -0.00000   0.00000  -0.00000   0.00005  -0.00000
   3        3S          0.00000  -0.00000   0.00000  -0.00008   0.00000
   4        4S         -0.00000   0.00000  -0.00000  -0.00016   0.00001
   5        5PX         0.00000  -0.00000   0.00000  -0.00005   0.00000
   6        5PY        -0.00000  -0.00000  -0.00000   0.17305   0.00000
   7        5PZ         0.20498  -0.00008  -0.11278   0.00000   0.00001
   8        6PX         0.00000  -0.00000   0.00000  -0.00009   0.00000
   9        6PY        -0.00000  -0.00000  -0.00000   0.29508   0.00001
  10        6PZ         0.38476  -0.00015  -0.21404   0.00000   0.00002
  11        7PX         0.00000  -0.00000   0.00000  -0.00026   0.00000
  12        7PY        -0.00000  -0.00000  -0.00000   1.02049   0.00003
  13        7PZ         0.45852  -0.00019  -0.41385   0.00000   0.00007
  14        8D 0       -0.00000   0.00000  -0.00000  -0.00002  -0.00000
  15        8D+1        0.00831   0.00000   0.08621  -0.00000  -0.00000
  16        8D-1        0.00003   0.06573  -0.00001   0.00000  -0.11926
  17        8D+2       -0.00000  -0.00000   0.00000   0.00003   0.00000
  18        8D-2        0.00000   0.00000   0.00000  -0.20599  -0.00001
  19 2   C  1S         -0.00000  -0.00000   0.00000  -0.08948  -0.00000
  20        2S          0.00000   0.00000  -0.00000   0.23285   0.00001
  21        3S          0.00000  -0.00000  -0.00001   0.96661   0.00003
  22        4PX        -0.00000   0.00000   0.00000  -0.23690  -0.00001
  23        4PY         0.00000  -0.00000   0.00000   0.18239   0.00001
  24        4PZ        -0.04696  -0.35656   0.37703  -0.00001   0.23990
  25        5PX         0.00000  -0.00000  -0.00000  -0.15723   0.00000
  26        5PY         0.00000  -0.00000  -0.00000   0.36403   0.00001
  27        5PZ        -0.01975  -0.25711   0.46596  -0.00001   0.43116
  28        6D 0       -0.00000  -0.00000  -0.00000   0.00405  -0.00000
  29        6D+1       -0.02079  -0.00766  -0.00526   0.00000  -0.03099
  30        6D-1        0.00204  -0.01138  -0.00105   0.00000   0.00004
  31        6D+2        0.00000   0.00000   0.00000  -0.01757  -0.00000
  32        6D-2       -0.00000  -0.00000  -0.00000   0.00675   0.00000
  33 3   C  1S          0.00000   0.00000   0.00000   0.00966   0.00000
  34        2S         -0.00000  -0.00000  -0.00000  -0.01998  -0.00000
  35        3S         -0.00000   0.00000   0.00001  -0.30392  -0.00002
  36        4PX         0.00000   0.00000  -0.00000   0.07043   0.00000
  37        4PY        -0.00000  -0.00000  -0.00000   0.10475   0.00000
  38        4PZ        -0.31463  -0.26531  -0.21397   0.00001  -0.41063
  39        5PX         0.00000  -0.00000  -0.00000   0.25268   0.00001
  40        5PY        -0.00000  -0.00000   0.00000   0.17083   0.00001
  41        5PZ        -0.18690  -0.17041  -0.25394   0.00002  -0.63144
  42        6D 0        0.00000   0.00000  -0.00000   0.00163  -0.00000
  43        6D+1        0.00506   0.01673  -0.02159   0.00000  -0.00832
  44        6D-1       -0.01450   0.01465  -0.02350  -0.00000   0.01388
  45        6D+2        0.00000  -0.00000   0.00000   0.01713   0.00000
  46        6D-2       -0.00000  -0.00000   0.00000  -0.01157  -0.00000
  47 4   C  1S         -0.00000   0.00000  -0.00000  -0.00965   0.00000
  48        2S          0.00000  -0.00000   0.00000   0.01994  -0.00000
  49        3S          0.00000   0.00000  -0.00000   0.30388  -0.00000
  50        4PX         0.00000  -0.00000   0.00000  -0.07049  -0.00000
  51        4PY        -0.00000  -0.00000  -0.00000   0.10476   0.00000
  52        4PZ        -0.31434   0.26557  -0.21384  -0.00001   0.41071
  53        5PX        -0.00000  -0.00000   0.00000  -0.25278  -0.00001
  54        5PY        -0.00000   0.00000   0.00000   0.17080   0.00000
  55        5PZ        -0.18672   0.17059  -0.25377  -0.00002   0.63158
  56        6D 0       -0.00000   0.00000   0.00000  -0.00163  -0.00000
  57        6D+1        0.00504  -0.01674  -0.02159  -0.00000   0.00832
  58        6D-1        0.01452   0.01463   0.02349  -0.00000   0.01386
  59        6D+2       -0.00000  -0.00000  -0.00000  -0.01711  -0.00000
  60        6D-2       -0.00000  -0.00000  -0.00000  -0.01156  -0.00000
  61 5   C  1S         -0.00000  -0.00000  -0.00000   0.08945   0.00000
  62        2S          0.00000   0.00000   0.00000  -0.23278  -0.00001
  63        3S         -0.00000  -0.00000   0.00001  -0.96643  -0.00003
  64        4PX        -0.00000   0.00000  -0.00000   0.23677   0.00001
  65        4PY        -0.00000   0.00000   0.00000   0.18233   0.00001
  66        4PZ        -0.04669   0.35665   0.37693   0.00001  -0.24000
  67        5PX        -0.00000   0.00000   0.00000   0.15695   0.00001
  68        5PY         0.00000   0.00000  -0.00000   0.36391   0.00001
[...]
     28  0.429981D-03  0.599899D-02  0.988504D-02
     29  0.625930D-03  0.890104D-03 -0.380472D-02  0.854355D-02
     30 -0.204936D-02 -0.582518D-02  0.813322D-04  0.384872D-02  0.975523D-02
     31 -0.240132D-02 -0.832229D-02 -0.199813D-02 -0.258275D-02  0.374142D-02
     32 -0.454126D-02 -0.475820D-02  0.536117D-03 -0.160434D-02  0.368998D-02
     33  0.365717D-03 -0.137672D-02 -0.601745D-02  0.227308D-02 -0.236765D-02
     34 -0.177422D-02  0.218737D-02 -0.348321D-02  0.325149D-02 -0.241908D-02
     35  0.752756D-03  0.655752D-03 -0.279016D-02  0.326043D-02 -0.185478D-03
     36 -0.634191D-02  0.325979D-02  0.231291D-02  0.135612D-03 -0.811272D-03
     37  0.282196D-02 -0.279053D-02 -0.524064D-02  0.231436D-02 -0.135747D-03
     38 -0.427270D-02 -0.186492D-03 -0.137571D-03 -0.810462D-03 -0.761541D-03
               31            32            33            34            35 
     31  0.103583D-01
     32  0.381725D-02  0.861679D-02
     33  0.381730D-02 -0.165863D-02  0.861718D-02
     34 -0.272379D-02  0.314091D-02  0.314125D-02  0.900595D-02
     35 -0.832183D-02 -0.137477D-02 -0.475775D-02  0.218931D-02  0.127185D-01
     36 -0.258454D-02  0.227167D-02 -0.160519D-02  0.325102D-02  0.892642D-03
     37 -0.199693D-02 -0.601568D-02  0.537195D-03 -0.348155D-02  0.600110D-02
     38  0.374035D-02 -0.236924D-02  0.368975D-02 -0.241984D-02 -0.582480D-02
               36            37            38 
     36  0.854442D-02
     37 -0.380306D-02  0.988701D-02
     38  0.384872D-02  0.828577D-04  0.975638D-02
 Leave Link  716 at Thu Feb 13 13:33:26 2025, MaxMem=   104857600 cpu:               0.0 elap:               0.1
 (Enter /software/gaussian/G16-C.01/avx2/g16/l103.exe)

 GradGradGradGradGradGradGradGradGradGradGradGradGradGradGradGradGradGrad
 Berny optimization.
 Red2BG is reusing G-inverse.
 Internal  Forces:  Max     0.000115160 RMS     0.000035863
 Search for a local minimum.
 Step number   1 out of a maximum of    2
 All quantities printed in internal units (Hartrees-Bohrs-Radians)
 Second derivative matrix not updated -- analytic derivatives used.
 ITU=  0
     Eigenvalues ---    0.01368   0.01503   0.02180   0.02488   0.03580
     Eigenvalues ---    0.04472   0.08604   0.09956   0.10897   0.11112
     Eigenvalues ---    0.12251   0.21711   0.24359   0.25959   0.28753
     Eigenvalues ---    0.36876   0.36901   0.37188   0.37273   0.42323
     Eigenvalues ---    0.51669
 Angle between quadratic step and forces=  33.78 degrees.
 Linear search not attempted -- first point.
 Iteration  1 RMS(Cart)=  0.00019405 RMS(Int)=  0.00000003
 Iteration  2 RMS(Cart)=  0.00000004 RMS(Int)=  0.00000000
 ITry= 1 IFail=0 DXMaxC= 7.03D-04 DCOld= 1.00D+10 DXMaxT= 3.00D-01 DXLimC= 3.00D+00 Rises=F
 Variable       Old X    -DE/DX   Delta X   Delta X   Delta X     New X
                                 (Linear)    (Quad)   (Total)
    R1        3.24728  -0.00006   0.00000  -0.00039  -0.00039   3.24688
    R2        3.24656   0.00003   0.00000   0.00033   0.00033   3.24688
    R3        2.68950  -0.00008   0.00000  -0.00018  -0.00018   2.68932
    R4        2.06727   0.00000   0.00000   0.00002   0.00002   2.06729
    R5        2.60144  -0.00012   0.00000  -0.00025  -0.00025   2.60119
    R6        2.06155  -0.00001   0.00000  -0.00003  -0.00003   2.06152
    R7        2.68910   0.00007   0.00000   0.00021   0.00021   2.68932
    R8        2.06142   0.00003   0.00000   0.00010   0.00010   2.06152
    R9        2.06732  -0.00001   0.00000  -0.00003  -0.00003   2.06729
    A1        1.57131  -0.00004   0.00000  -0.00010  -0.00010   1.57121
    A2        1.97640   0.00007   0.00000   0.00028   0.00028   1.97669
    A3        2.10228  -0.00003   0.00000  -0.00006  -0.00006   2.10223
    A4        2.20450  -0.00004   0.00000  -0.00023  -0.00023   2.20427
    A5        1.95017  -0.00001   0.00000  -0.00007  -0.00007   1.95010
    A6        2.14165  -0.00002   0.00000  -0.00023  -0.00023   2.14141
    A7        2.19137   0.00003   0.00000   0.00030   0.00030   2.19167
    A8        1.95004   0.00001   0.00000   0.00005   0.00005   1.95010
    A9        2.19135   0.00003   0.00000   0.00032   0.00032   2.19167
   A10        2.14179  -0.00003   0.00000  -0.00037  -0.00037   2.14142
   A11        1.97685  -0.00003   0.00000  -0.00017  -0.00017   1.97669
   A12        2.10252  -0.00003   0.00000  -0.00030  -0.00030   2.10222
   A13        2.20381   0.00006   0.00000   0.00046   0.00046   2.20427
    D1        0.00000  -0.00000   0.00000  -0.00000  -0.00000   0.00000
    D2        3.14159   0.00000   0.00000   0.00000   0.00000   3.14159
    D3        0.00000  -0.00000   0.00000  -0.00000  -0.00000   0.00000
    D4        3.14159   0.00000   0.00000   0.00000   0.00000   3.14159
    D5       -0.00000   0.00000   0.00000   0.00000   0.00000   0.00000
    D6        3.14159   0.00000   0.00000   0.00000   0.00000   3.14159
    D7        3.14159   0.00000   0.00000   0.00000   0.00000   3.14159
    D8        0.00000  -0.00000   0.00000  -0.00000  -0.00000   0.00000
    D9        0.00000  -0.00000   0.00000  -0.00000  -0.00000   0.00000
   D10       -3.14159  -0.00000   0.00000  -0.00000  -0.00000   3.14159
   D11       -3.14159  -0.00000   0.00000  -0.00000  -0.00000   3.14159
   D12       -0.00000   0.00000   0.00000   0.00000   0.00000   0.00000
   D13       -0.00000   0.00000   0.00000   0.00000   0.00000   0.00000
   D14        3.14159   0.00000   0.00000   0.00000   0.00000   3.14159
   D15        3.14159   0.00000   0.00000   0.00000   0.00000   3.14159
   D16        0.00000  -0.00000   0.00000  -0.00000  -0.00000   0.00000
         Item               Value     Threshold  Converged?
 Maximum Force            0.000115     0.000450     YES
 RMS     Force            0.000036     0.000300     YES
 Maximum Displacement     0.000703     0.001800     YES
 RMS     Displacement     0.000194     0.001200     YES
 Predicted change in Energy=-1.039396D-07
 Optimization completed.
    -- Stationary point found.
                           ----------------------------
                           !   Optimized Parameters   !
                           ! (Angstroms and Degrees)  !
 --------------------------                            --------------------------
 ! Name  Definition              Value          Derivative Info.                !
 --------------------------------------------------------------------------------
 ! R1    R(1,2)                  1.7184         -DE/DX =   -0.0001              !
 ! R2    R(1,5)                  1.718          -DE/DX =    0.0                 !
 ! R3    R(2,3)                  1.4232         -DE/DX =   -0.0001              !
 ! R4    R(2,6)                  1.094          -DE/DX =    0.0                 !
 ! R5    R(3,4)                  1.3766         -DE/DX =   -0.0001              !
 ! R6    R(3,7)                  1.0909         -DE/DX =    0.0                 !
 ! R7    R(4,5)                  1.423          -DE/DX =    0.0001              !
 ! R8    R(4,8)                  1.0909         -DE/DX =    0.0                 !
 ! R9    R(5,9)                  1.094          -DE/DX =    0.0                 !
 ! A1    A(2,1,5)               90.0294         -DE/DX =    0.0                 !
 ! A2    A(1,2,3)              113.2396         -DE/DX =    0.0001              !
 ! A3    A(1,2,6)              120.4519         -DE/DX =    0.0                 !
 ! A4    A(3,2,6)              126.3085         -DE/DX =    0.0                 !
 ! A5    A(2,3,4)              111.7363         -DE/DX =    0.0                 !
 ! A6    A(2,3,7)              122.7073         -DE/DX =    0.0                 !
 ! A7    A(4,3,7)              125.5564         -DE/DX =    0.0                 !
 ! A8    A(3,4,5)              111.7293         -DE/DX =    0.0                 !
 ! A9    A(3,4,8)              125.5552         -DE/DX =    0.0                 !
 ! A10   A(5,4,8)              122.7155         -DE/DX =    0.0                 !
 ! A11   A(1,5,4)              113.2654         -DE/DX =    0.0                 !
 ! A12   A(1,5,9)              120.4655         -DE/DX =    0.0                 !
 ! A13   A(4,5,9)              126.2691         -DE/DX =    0.0001              !
 ! D1    D(5,1,2,3)              0.0001         -DE/DX =    0.0                 !
 ! D2    D(5,1,2,6)            180.0            -DE/DX =    0.0                 !
 ! D3    D(2,1,5,4)              0.0            -DE/DX =    0.0                 !
 ! D4    D(2,1,5,9)            180.0            -DE/DX =    0.0                 !
 ! D5    D(1,2,3,4)             -0.0001         -DE/DX =    0.0                 !
 ! D6    D(1,2,3,7)            180.0            -DE/DX =    0.0                 !
 ! D7    D(6,2,3,4)            180.0            -DE/DX =    0.0                 !
 ! D8    D(6,2,3,7)              0.0001         -DE/DX =    0.0                 !
 ! D9    D(2,3,4,5)              0.0001         -DE/DX =    0.0                 !
 ! D10   D(2,3,4,8)            180.0001         -DE/DX =    0.0                 !
 ! D11   D(7,3,4,5)            180.0            -DE/DX =    0.0                 !
 ! D12   D(7,3,4,8)              0.0            -DE/DX =    0.0                 !
 ! D13   D(3,4,5,1)             -0.0001         -DE/DX =    0.0                 !
 ! D14   D(3,4,5,9)            180.0            -DE/DX =    0.0                 !
 ! D15   D(8,4,5,1)            180.0            -DE/DX =    0.0                 !
 ! D16   D(8,4,5,9)              0.0            -DE/DX =    0.0                 !
 --------------------------------------------------------------------------------
 GradGradGradGradGradGradGradGradGradGradGradGradGradGradGradGradGradGrad

 Leave Link  103 at Thu Feb 13 13:33:26 2025, MaxMem=   104857600 cpu:               0.0 elap:               0.1
 (Enter /software/gaussian/G16-C.01/avx2/g16/l9999.exe)

 ----------------------------------------------------------------------

 Electric dipole moment (input orientation):
 (Debye = 10**-18 statcoulomb cm , SI units = C m)
                  (au)            (Debye)         (10**-30 SI)
   Tot        0.554554D+00      0.140954D+01      0.470171D+01
   x          0.175920D+00      0.447143D+00      0.149151D+01
   y          0.525859D+00      0.133660D+01      0.445842D+01
   z         -0.739603D-02     -0.187988D-01     -0.627062D-01

 Dipole polarizability, Alpha (input orientation).
 (esu units = cm**3 , SI units = C**2 m**2 J**-1)
 Alpha(0;0):
               (au)            (10**-24 esu)      (10**-40 SI)
   iso        0.487081D+02      0.721779D+01      0.803087D+01
   aniso      0.364194D+02      0.539680D+01      0.600475D+01
   xx         0.614906D+02      0.911197D+01      0.101384D+02
   yx        -0.495584D+00     -0.734379D-01     -0.817107D-01
   yy         0.601804D+02      0.891781D+01      0.992241D+01
   zx        -0.139329D+00     -0.206465D-01     -0.229723D-01
   zy        -0.453629D+00     -0.672209D-01     -0.747933D-01
   zz         0.244532D+02      0.362359D+01      0.403178D+01

 ----------------------------------------------------------------------

 Dipole orientation:
    16         -0.13804612          0.08811268         -2.66305491
     6         -2.31524346          0.81723086         -0.36675044
     6         -1.36964692          0.50056320          2.13104303
     6          1.09713675         -0.32553796          2.12979830
     6          2.04003691         -0.64130301         -0.36870266
     1         -4.21268889          1.45266484         -0.88591914
     1         -2.50563534          0.88099369          3.80877415
     1          2.23454410         -0.70644379          3.80630576
     1          3.93733522         -1.27668724         -0.88866557

 Electric dipole moment (dipole orientation):
 (Debye = 10**-18 statcoulomb cm , SI units = C m)
                  (au)            (Debye)         (10**-30 SI)
   Tot        0.554554D+00      0.140954D+01      0.470171D+01
   x          0.000000D+00      0.000000D+00      0.000000D+00
   y          0.000000D+00      0.000000D+00      0.000000D+00
   z          0.554554D+00      0.140954D+01      0.470171D+01

 Dipole polarizability, Alpha (dipole orientation).
 (esu units = cm**3 , SI units = C**2 m**2 J**-1)
 Alpha(0;0):
               (au)            (10**-24 esu)      (10**-40 SI)
   iso        0.487081D+02      0.721779D+01      0.803087D+01
   aniso      0.364194D+02      0.539680D+01      0.600475D+01
   xx         0.579046D+02      0.858058D+01      0.954719D+01
   yx        -0.112047D+02     -0.166036D+01     -0.184740D+01
   yy         0.281991D+02      0.417868D+01      0.464941D+01
   zx        -0.168145D-02     -0.249166D-03     -0.277234D-03
   zy         0.561548D-03      0.832128D-04      0.925867D-04
   zz         0.600204D+02      0.889410D+01      0.989602D+01

 ----------------------------------------------------------------------
 Unable to Open any file for archive entry.
 1\1\GINC-NODE32\Freq\UwB97XD\def2SVP\C4H4S1(1+,2)\CALVINO\13-Feb-2025\
 0\\#P Geom=AllCheck Guess=TCheck SCRF=Check GenChk UwB97XD/def2SVP Fre
 q\\re-optimize from gaff\\1,2\S,-0.5268612131,-1.3099031324,-0.0022460
 946\C,-1.2936284361,0.2278361082,-0.0188357638\C,-0.3738839681,1.31380
 31599,-0.0362984976\C,0.9314130433,0.8764439173,-0.0358534652\C,1.0110
 056471,-0.5442290042,-0.0180547349\H,-2.3849734941,0.3032550743,-0.015
 5065023\H,-0.6934479335,2.3568032253,-0.048339787\H,1.8148019756,1.516
 3339634,-0.0474846538\H,1.9278343788,-1.141053312,-0.0140505141\\Versi
 on=ES64L-G16RevC.01\State=2-A\HF=-552.3884837\S2=0.771601\S2-1=0.\S2A=
 0.750111\RMSD=1.524e-09\RMSF=6.277e-05\ZeroPoint=0.0659848\Thermal=0.0
 702496\ETot=-552.3182341\HTot=-552.3172899\GTot=-552.3505238\Dipole=0.
 1759197,0.5258592,-0.007396\DipoleDeriv=0.3174765,-0.1245059,0.0014102
 ,-0.1237213,-0.0107188,0.0040954,0.0014,0.0040985,0.2723035,0.3462995,
 -0.1328733,0.0005289,0.572836,0.3412363,-0.0059652,-0.0084682,-0.00319
 07,0.0500483,-0.5001163,-0.2532478,0.0051571,-0.3202963,-0.0089124,0.0
 012499,0.0060119,0.0009865,-0.0096598,-0.0460068,0.281494,-0.0034457,0
 .348445,-0.4636778,0.0044192,-0.0042994,0.0046823,-0.0096688,0.1328523
 ,0.2906464,-0.0040318,-0.4157421,0.5558642,-0.0048161,0.0049743,-0.007
 5933,0.0500001,0.2304569,-0.0198227,-0.0000412,0.0103537,0.1221855,0.0
 003862,-0.0004263,0.0005049,0.155669,0.1441514,-0.0367569,0.0005617,-0
 .0158313,0.1710864,0.0000208,0.0002952,0.0001028,0.1678329,0.1792123,0
 .0306069,-0.000435,0.0097388,0.1360446,0.000367,-0.0001686,0.000285,0.
 1678324,0.1956742,-0.0355408,0.0002958,-0.0657825,0.1568919,0.0002427,
 0.0006811,0.000124,0.1556423\Polar=61.4906227,-0.4955835,60.1803854,-0
 .1393292,-0.4536289,24.4531649\Quadrupole=4.5969145,1.75019,-6.3471045
 ,-1.0727399,-0.0293589,-0.0990341\PG=C01 [X(C4H4S1)]\NImag=0\\0.181401
 22,0.06197894,0.34497783,-0.00136463,-0.00419184,0.03535835,-0.0779455
 8,0.04812471,-0.00044735,0.71383561,-0.01845818,-0.14639628,0.00148413
 ,0.02115121,0.37447102,0.00040152,0.00122234,-0.03569473,-0.00264050,-
 0.00344398,0.11092811,0.02340288,-0.03985316,0.00045822,-0.17029318,-0
 .04859317,0.00105757,0.65975339,0.01950362,-0.06097188,0.00083734,-0.1
 0934806,-0.21698618,0.00244540,-0.10587170,0.78015220,-0.00029852,0.00
 107069,0.01070671,0.00183219,0.00220654,-0.05895113,-0.00075179,-0.007
 93421,0.12530856,0.00255695,-0.00808309,0.00013516,-0.04600992,-0.0163
 7551,0.00040295,-0.40102221,0.09965990,0.00007281,0.80532841,-0.067429
 32,-0.04018518,0.00091419,-0.02922340,-0.02675467,0.00049915,0.1064023
 9,-0.12805084,0.00045866,0.08691650,0.63521787,0.00089181,0.00068087,0
 .01071376,0.00056680,0.00044866,0.00337776,-0.00001315,0.00048518,-0.0
 5927537,-0.00378210,-0.00684461,0.12525194,-0.11740523,-0.07043691,0.0
 0121944,-0.05789927,0.06755355,-0.00062744,-0.01710678,0.02194040,-0.0
 0019910,-0.11126103,0.02956739,-0.00017106,0.57076247,-0.00387007,-0.1
 0733811,0.00092908,0.04159495,0.08676015,-0.00124979,0.00904836,-0.055
 69984,0.00071789,-0.03116822,-0.27649428,0.00289656,-0.16866233,0.5184
 1162,0.00037076,0.00119082,-0.03567454,-0.00029649,-0.00135186,0.00157
 833,-0.00003475,0.00066725,0.00339158,0.00060326,0.00265778,-0.0589325
 9,0.00034207,-0.00453255,0.11092435,-0.00182650,-0.00097159,0.00003374
 ,-0.36186698,0.01929098,0.00104219,-0.00414770,0.00551404,-0.00002298,
 -0.00100984,-0.00209807,0.00004295,0.00127939,-0.00006570,0.00000858,0
 .36718197,0.01966683,0.00268702,-0.00006561,0.02227538,-0.05656532,0.0
 0019701,-0.01980632,0.01037504,0.00004618,-0.00428585,-0.00335091,0.00
 009922,0.00369313,-0.00663070,0.00011143,-0.02210421,0.05078921,-0.000
 22937,0.00001554,0.00360694,0.00100408,0.00020875,-0.03425068,0.000299
 87,-0.00005338,0.00788881,0.00007085,0.00009063,0.00310774,-0.00003935
 ,0.00012621,0.00324734,-0.00108761,-0.00031991,0.01888981,-0.00169627,
 -0.00387102,0.00007053,0.00850491,-0.02180929,0.00025721,-0.08327908,0
 .08616505,-0.00092680,0.00129698,0.02521101,-0.00029720,-0.00556079,0.
 00275830,0.00001248,0.00039088,0.00062762,-0.00001548,0.07900375,0.000
 02958,-0.00021294,0.00004964,0.00809701,-0.01015992,0.00013854,0.08561
 381,-0.33644832,0.00344820,-0.00322404,0.00339651,0.00006443,-0.001086
 23,-0.00179491,0.00011079,0.00009459,0.00063575,-0.00002774,-0.0895881
 6,0.34418756,0.00002078,0.00006497,0.00368841,-0.00012409,0.00025612,0
 .00320118,-0.00091975,0.00344599,-0.03963056,0.00006534,-0.00004736,0.
 00745730,0.00006150,0.00009572,0.00655807,-0.00000868,-0.00002984,-0.0
 0151055,0.00092947,-0.00371856,0.02494105,0.00068692,0.00318808,-0.000
 02884,-0.00499576,-0.00034163,0.00004978,-0.00851483,-0.01621890,0.000
 26957,-0.25786779,-0.14562831,0.00271488,0.00832639,0.00786288,-0.0001
 2038,-0.00016111,-0.00077483,0.00000741,0.00088504,0.00002207,-0.00001
 916,0.26150729,-0.00070697,-0.00259950,0.00008296,0.00350499,-0.002354
 47,0.00009987,0.01221678,0.01320598,-0.00012136,-0.14507105,-0.1619898
 5,0.00213111,-0.02205480,-0.00997965,0.00025480,0.00021518,0.00079581,
 -0.00002105,-0.00052594,0.00021724,-0.00005063,0.15213826,0.16180974,0
 .00002080,0.00006766,0.00368896,0.00000072,0.00011496,0.00655811,-0.00
 009295,-0.00000957,0.00745441,0.00270781,0.00213332,-0.03960721,0.0002
 6104,0.00013718,0.00320112,-0.00000521,-0.00001716,-0.00078861,-0.0000
 1217,-0.00005279,-0.00391555,-0.00286995,-0.00234389,0.02492106,-0.009
 17438,0.00992403,-0.00007628,-0.00332981,-0.00241797,0.00005671,0.0012
 0752,-0.00134435,0.00002461,0.00798846,-0.00371819,0.00004708,-0.27113
 516,0.14250182,-0.00088553,0.00015988,0.00070825,-0.00001041,0.0004545
 7,0.00004139,-0.00000542,0.00013385,0.00028354,-0.00001009,0.27369507,
 -0.01071442,0.01003905,-0.00003989,-0.00617679,-0.00201433,0.00009146,
 0.00084301,-0.00557618,0.00010740,0.02163137,-0.00178865,0.00003857,0.
 13948580,-0.14723429,0.00089155,0.00012477,0.00126409,-0.00001904,0.00
 103242,0.00017903,-0.00001641,-0.00024763,0.00089471,-0.00002972,-0.14
 597853,0.14423658,0.00018686,-0.00012104,0.00360613,0.00010464,0.00007
 669,0.00325305,-0.00000328,0.00011599,0.00310699,-0.00027608,0.0001382
 4,0.00790667,-0.00084711,0.00087971,-0.03429367,-0.00000297,-0.0000213
 4,-0.00019080,-0.00001805,-0.00001251,-0.00078934,-0.00000332,-0.00003
 181,-0.00151231,0.00085931,-0.00102392,0.01891327\\0.00008855,-0.00000
 626,-0.00000029,-0.00014806,-0.00000313,0.00000079,-0.00005620,0.00005
 422,-0.00000067,0.00020880,-0.00010443,0.00000067,-0.00010486,0.000016
 68,0.00000009,0.00000342,-0.00000480,0.00000002,0.00002384,0.00001534,
 -0.00000028,-0.00004579,0.00000386,0.00000013,0.00003029,0.00002854,-0
 .00000047\\\@
 The archive entry for this job was punched.


 SCIENCE AND PEACE WILL TRIUMPH OVER IGNORANCE AND WAR

                          -- PASTEUR
 Job cpu time:       0 days  0 hours  2 minutes  5.8 seconds.
 Elapsed time:       0 days  0 hours  2 minutes  6.7 seconds.
 File lengths (MBytes):  RWF=     92 Int=      0 D2E=      0 Chk=      3 Scr=      2
 Normal termination of Gaussian 16 at Thu Feb 13 13:33:26 2025.
