 Entering Gaussian System, Link 0=g16
 Input=Atom_en_C.inp
 Output=Atom_en_C.log
 Initial command:
 /software/gaussian/G16-C.01/avx2/g16/l1.exe "/home/student5/lise/MasterProject_SPAHM-ENN/Atomization_energy/Atom_en_C/Gau-50440.inp" -scrdir="/home/student5/lise/MasterProject_SPAHM-ENN/Atomization_energy/Atom_en_C/"
 Default is to use a total of   2 processors:
                                2 via shared-memory
                                1 via Linda
 Entering Link 1 = /software/gaussian/G16-C.01/avx2/g16/l1.exe PID=     50441.
  
 Copyright (c) 1988-2019, Gaussian, Inc.  All Rights Reserved.
  
 This is part of the Gaussian(R) 16 program.  It is based on
 the Gaussian(R) 09 system (copyright 2009, Gaussian, Inc.),
 the Gaussian(R) 03 system (copyright 2003, Gaussian, Inc.),
 the Gaussian(R) 98 system (copyright 1998, Gaussian, Inc.),
 the Gaussian(R) 94 system (copyright 1995, Gaussian, Inc.),
 the Gaussian 92(TM) system (copyright 1992, Gaussian, Inc.),
 the Gaussian 90(TM) system (copyright 1990, Gaussian, Inc.),
 the Gaussian 88(TM) system (copyright 1988, Gaussian, Inc.),
 the Gaussian 86(TM) system (copyright 1986, Carnegie Mellon
 University), and the Gaussian 82(TM) system (copyright 1983,
 Carnegie Mellon University). Gaussian is a federally registered
 trademark of Gaussian, Inc.
  
 This software contains proprietary and confidential information,
 including trade secrets, belonging to Gaussian, Inc.
  
 This software is provided under written license and may be
 used, copied, transmitted, or stored only in accord with that
 written license.
  
 The following legend is applicable only to US Government
 contracts under FAR:
  
                    RESTRICTED RIGHTS LEGEND
  
 Use, reproduction and disclosure by the US Government is
 subject to restrictions as set forth in subparagraphs (a)
 and (c) of the Commercial Computer Software - Restricted
 Rights clause in FAR 52.227-19.
  
 Gaussian, Inc.
 340 Quinnipiac St., Bldg. 40, Wallingford CT 06492
  
  
 ---------------------------------------------------------------
 Warning -- This program may not be used in any manner that
 competes with the business of Gaussian, Inc. or will provide
 assistance to any competitor of Gaussian, Inc.  The licensee
 of this program is prohibited from giving any competitor of
 Gaussian, Inc. access to this program.  By using this program,
 the user acknowledges that Gaussian, Inc. is engaged in the
 business of creating and licensing software in the field of
 computational chemistry and represents and warrants to the
 licensee that it is not a competitor of Gaussian, Inc. and that
 it will not use this program in any manner prohibited above.
 ---------------------------------------------------------------
  

 Cite this work as:
 Gaussian 16, Revision C.01,
 M. J. Frisch, G. W. Trucks, H. B. Schlegel, G. E. Scuseria, 
 M. A. Robb, J. R. Cheeseman, G. Scalmani, V. Barone, 
 G. A. Petersson, H. Nakatsuji, X. Li, M. Caricato, A. V. Marenich, 
 J. Bloino, B. G. Janesko, R. Gomperts, B. Mennucci, H. P. Hratchian, 
 J. V. Ortiz, A. F. Izmaylov, J. L. Sonnenberg, D. Williams-Young, 
 F. Ding, F. Lipparini, F. Egidi, J. Goings, B. Peng, A. Petrone, 
 T. Henderson, D. Ranasinghe, V. G. Zakrzewski, J. Gao, N. Rega, 
 G. Zheng, W. Liang, M. Hada, M. Ehara, K. Toyota, R. Fukuda, 
 J. Hasegawa, M. Ishida, T. Nakajima, Y. Honda, O. Kitao, H. Nakai, 
 T. Vreven, K. Throssell, J. A. Montgomery, Jr., J. E. Peralta, 
 F. Ogliaro, M. J. Bearpark, J. J. Heyd, E. N. Brothers, K. N. Kudin, 
 V. N. Staroverov, T. A. Keith, R. Kobayashi, J. Normand, 
 K. Raghavachari, A. P. Rendell, J. C. Burant, S. S. Iyengar, 
 J. Tomasi, M. Cossi, J. M. Millam, M. Klene, C. Adamo, R. Cammi, 
 J. W. Ochterski, R. L. Martin, K. Morokuma, O. Farkas, 
 J. B. Foresman, and D. J. Fox, Gaussian, Inc., Wallingford CT, 2019.
 
 ******************************************
 Gaussian 16:  ES64L-G16RevC.01  3-Jul-2019
                17-Feb-2025 
 ******************************************
 %chk=Atom_en_C.chk
 -------------------------------------
 #p wB97XD/Def2SVP SP pop=full gfinput
 -------------------------------------
 1/38=1,172=1/1;
 2/12=2,17=6,18=5,40=1/2;
 3/5=43,7=101,11=2,24=10,25=1,30=1,74=-58/1,2,3;
 4//1;
 5/5=2,38=5/2;
 6/7=3,28=1/1;
 99/5=1,9=1/99;
 Leave Link    1 at Mon Feb 17 19:45:15 2025, MaxMem=           0 cpu:               0.2 elap:               0.1
 (Enter /software/gaussian/G16-C.01/avx2/g16/l101.exe)
 ---
 C 1
 ---
 Symbolic Z-matrix:
 Charge =  0 Multiplicity = 3
 C                     0.        0.        0. 
 
 ITRead=  0
 MicOpt= -1
 NAtoms=      1 NQM=        1 NQMF=       0 NMMI=      0 NMMIF=      0
                NMic=       0 NMicF=      0.
                    Isotopes and Nuclear Properties:
 (Nuclear quadrupole moments (NQMom) in fm**2, nuclear magnetic moments (NMagM)
  in nuclear magnetons)

  Atom         1
 IAtWgt=          12
 AtmWgt=  12.0000000
 NucSpn=           0
 AtZEff=  -0.0000000
 NQMom=    0.0000000
 NMagM=    0.0000000
 AtZNuc=   6.0000000
 Leave Link  101 at Mon Feb 17 19:45:15 2025, MaxMem=   104857600 cpu:               0.4 elap:               0.2
 (Enter /software/gaussian/G16-C.01/avx2/g16/l202.exe)
                          Input orientation:                          
 ---------------------------------------------------------------------
 Center     Atomic      Atomic             Coordinates (Angstroms)
 Number     Number       Type             X           Y           Z
 ---------------------------------------------------------------------
      1          6           0        0.000000    0.000000    0.000000
 ---------------------------------------------------------------------
 Stoichiometry    C(3)
 Framework group  OH[O(C)]
 Deg. of freedom     0
 Full point group                 OH      NOp  48
 Largest Abelian subgroup         D2H     NOp   8
 Largest concise Abelian subgroup C1      NOp   1
                         Standard orientation:                         
 ---------------------------------------------------------------------
 Center     Atomic      Atomic             Coordinates (Angstroms)
 Number     Number       Type             X           Y           Z
 ---------------------------------------------------------------------
      1          6           0        0.000000    0.000000    0.000000
 ---------------------------------------------------------------------
 Leave Link  202 at Mon Feb 17 19:45:15 2025, MaxMem=   104857600 cpu:               0.0 elap:               0.0
 (Enter /software/gaussian/G16-C.01/avx2/g16/l301.exe)
 Standard basis: def2SVP (5D, 7F)
 Ernie: Thresh=  0.10000D-02 Tol=  0.10000D-05 Strict=F.
 AO basis set in the form of general basis input (Overlap normalization):
      1 0
 S   5 1.00       0.000000000000
      0.1238401694D+04  0.5517365048D-02
      0.1862900499D+03  0.4108882856D-01
      0.4225117635D+02  0.1822538213D+00
      0.1167655793D+02  0.4682845944D+00
      0.3593050648D+01  0.4457581734D+00
 S   1 1.00       0.000000000000
      0.4024514736D+00  0.1000000000D+01
 S   1 1.00       0.000000000000
      0.1309018267D+00  0.1000000000D+01
 P   3 1.00       0.000000000000
      0.9468097062D+01  0.5688833201D-01
      0.2010354514D+01  0.3129405934D+00
      0.5477100471D+00  0.7606501651D+00
 P   1 1.00       0.000000000000
      0.1526861379D+00  0.1000000000D+01
 D   1 1.00       0.000000000000
      0.8000000000D+00  0.1000000000D+01
 ****

 There are     6 symmetry adapted cartesian basis functions of AG  symmetry.
 There are     1 symmetry adapted cartesian basis functions of B1G symmetry.
 There are     1 symmetry adapted cartesian basis functions of B2G symmetry.
 There are     1 symmetry adapted cartesian basis functions of B3G symmetry.
 There are     0 symmetry adapted cartesian basis functions of AU  symmetry.
 There are     2 symmetry adapted cartesian basis functions of B1U symmetry.
 There are     2 symmetry adapted cartesian basis functions of B2U symmetry.
 There are     2 symmetry adapted cartesian basis functions of B3U symmetry.
 There are     5 symmetry adapted basis functions of AG  symmetry.
 There are     1 symmetry adapted basis functions of B1G symmetry.
 There are     1 symmetry adapted basis functions of B2G symmetry.
 There are     1 symmetry adapted basis functions of B3G symmetry.
 There are     0 symmetry adapted basis functions of AU  symmetry.
 There are     2 symmetry adapted basis functions of B1U symmetry.
 There are     2 symmetry adapted basis functions of B2U symmetry.
 There are     2 symmetry adapted basis functions of B3U symmetry.
    14 basis functions,    25 primitive gaussians,    15 cartesian basis functions
     4 alpha electrons        2 beta electrons
       nuclear repulsion energy         0.0000000000 Hartrees.
 IExCor= 4639 DFT=T Ex+Corr=wB97XD ExCW=0 ScaHFX=  1.000000
 ScaDFX=  1.000000  1.000000  1.000000  1.000000 ScalE2=  1.000000  1.000000
 IRadAn=      5 IRanWt=     -1 IRanGd=            0 ICorTp=0 IEmpDi=121
 HFx  wShort=  0.000000 wLong=  0.200000 cFull=  0.222036 cShort=  0.000000 cLong=  0.777964
 DFx  wShort=  0.000000 wLong=  0.200000 cFull=  0.000000 cShort=  0.000000 cLong=  1.000000
 NAtoms=    1 NActive=    1 NUniq=    1 SFac= 1.00D+00 NAtFMM=   60 NAOKFM=F Big=F
 Integral buffers will be    131072 words long.
 Raffenetti 2 integral format.
 Two-electron integral symmetry is turned on.
 R6Disp:  Grimme-D2 Dispersion energy=        0.0000000000 Hartrees.
 Nuclear repulsion after empirical dispersion term =        0.0000000000 Hartrees.
 Leave Link  301 at Mon Feb 17 19:45:15 2025, MaxMem=   104857600 cpu:               0.1 elap:               0.0
 (Enter /software/gaussian/G16-C.01/avx2/g16/l302.exe)
 NPDir=0 NMtPBC=     1 NCelOv=     1 NCel=       1 NClECP=     1 NCelD=      1
         NCelK=      1 NCelE2=     1 NClLst=     1 CellRange=     0.0.
 One-electron integrals computed using PRISM.
 One-electron integral symmetry used in STVInt
  48 Symmetry operations used in ECPInt.
 ECPInt:  NShTT=      21 NPrTT=      91 LenC2=      22 LenP2D=      91.
 LDataN:  DoStor=T MaxTD1= 4 Len=   56
 NBasis=    14 RedAO= T EigKep=  1.81D-01  NBF=     5     1     1     1     0     2     2     2
 NBsUse=    14 1.00D-06 EigRej= -1.00D+00 NBFU=     5     1     1     1     0     2     2     2
 Precomputing XC quadrature grid using
 IXCGrd= 4 IRadAn=           5 IRanWt=          -1 IRanGd=           0 AccXCQ= 0.00D+00.
 Generated NRdTot=       0 NPtTot=           0 NUsed=           0 NTot=          32
 NSgBfM=    15    15    15    15    15 MxSgAt=     1 MxSgA2=     1.
 Leave Link  302 at Mon Feb 17 19:45:15 2025, MaxMem=   104857600 cpu:               0.3 elap:               0.2
 (Enter /software/gaussian/G16-C.01/avx2/g16/l303.exe)
 DipDrv:  MaxL=1.
 Leave Link  303 at Mon Feb 17 19:45:16 2025, MaxMem=   104857600 cpu:               0.1 elap:               0.0
 (Enter /software/gaussian/G16-C.01/avx2/g16/l401.exe)
 ExpMin= 1.31D-01 ExpMax= 1.24D+03 ExpMxC= 1.86D+02 IAcc=3 IRadAn=         5 AccDes= 0.00D+00
 Harris functional with IExCor= 4639 and IRadAn=       5 diagonalized for initial guess.
 HarFok:  IExCor= 4639 AccDes= 0.00D+00 IRadAn=         5 IDoV= 1 UseB2=F ITyADJ=14
 ICtDFT=  3500011 ScaDFX=  1.000000  1.000000  1.000000  1.000000
 FoFCou: FMM=F IPFlag=           0 FMFlag=      100000 FMFlg1=           0
         NFxFlg=           0 DoJE=T BraDBF=F KetDBF=T FulRan=T
         wScrn=  0.000000 ICntrl=       500 IOpCl=  0 I1Cent=   200000004 NGrid=           0
         NMat0=    1 NMatS0=      1 NMatT0=    0 NMatD0=    1 NMtDS0=    0 NMtDT0=    0
 Petite list used in FoFCou.
 Harris En= -36.1510872520774    
 JPrj=0 DoOrth=F DoCkMO=F.
 Initial guess orbital symmetries:
 Alpha Orbitals:
       Occupied  (A1G) (A1G) (T1U) (T1U)
       Virtual   (T1U) (A1G) (T1U) (T1U) (T1U) (T2G) (T2G) (T2G)
                 (EG) (EG)
 Beta  Orbitals:
       Occupied  (A1G) (A1G)
       Virtual   (T1U) (T1U) (T1U) (A1G) (T1U) (T1U) (T1U) (T2G)
                 (T2G) (T2G) (EG) (EG)
 Initial guess <Sx>= 0.0000 <Sy>= 0.0000 <Sz>= 1.0000 <S**2>= 2.0000 S= 1.0000
 Leave Link  401 at Mon Feb 17 19:45:16 2025, MaxMem=   104857600 cpu:               0.4 elap:               0.2
 (Enter /software/gaussian/G16-C.01/avx2/g16/l502.exe)
 Keep R1 and R2 ints in memory in symmetry-blocked form, NReq=1740521.
 FoFCou: FMM=F IPFlag=           0 FMFlag=           0 FMFlg1=           0
         NFxFlg=           0 DoJE=F BraDBF=F KetDBF=F FulRan=T
         wScrn=  0.000000 ICntrl=       600 IOpCl=  0 I1Cent=           0 NGrid=           0
         NMat0=    1 NMatS0=    105 NMatT0=    0 NMatD0=    1 NMtDS0=    0 NMtDT0=    0
 Petite list used in FoFCou.
 UHF open shell SCF:
 Using DIIS extrapolation, IDIIS=  1040.
 NGot=   104857600 LenX=   104852321 LenY=   104851439
 Requested convergence on RMS density matrix=1.00D-08 within 128 cycles.
 Requested convergence on MAX density matrix=1.00D-06.
 Requested convergence on             energy=1.00D-06.
 No special actions if energy rises.
 Integral accuracy reduced to 1.0D-05 until final iterations.

 Cycle   1  Pass 0  IDiag  1:
 Density matrix breaks symmetry, PCut= 1.00D-04
 Density has only Abelian symmetry.
 E= -37.7530273817242    
 DIIS: error= 6.98D-02 at cycle   1 NSaved=   1.
 NSaved= 1 IEnMin= 1 EnMin= -37.7530273817242     IErMin= 1 ErrMin= 6.98D-02
 ErrMax= 6.98D-02  0.00D+00 EMaxC= 1.00D-01 BMatC= 1.42D-01 BMatP= 1.42D-01
 IDIUse=3 WtCom= 3.02D-01 WtEn= 6.98D-01
 Coeff-Com:  0.100D+01
 Coeff-En:   0.100D+01
 Coeff:      0.100D+01
 Gap=     0.264 Goal=   None    Shift=    0.000
 Gap=     0.528 Goal=   None    Shift=    0.000
 GapD=    0.264 DampG=1.000 DampE=0.500 DampFc=0.5000 IDamp=-1.
 Damping current iteration by 5.00D-01
 RMSDP=2.42D-02 MaxDP=2.07D-01              OVMax= 9.96D-02

 Cycle   2  Pass 0  IDiag  1:
 Density matrix breaks symmetry, PCut= 1.00D-04
 Density has only Abelian symmetry.
 E= -37.7766330329119     Delta-E=       -0.023605651188 Rises=F Damp=T
 DIIS: error= 3.00D-02 at cycle   2 NSaved=   2.
 NSaved= 2 IEnMin= 2 EnMin= -37.7766330329119     IErMin= 2 ErrMin= 3.00D-02
 ErrMax= 3.00D-02  0.00D+00 EMaxC= 1.00D-01 BMatC= 2.72D-02 BMatP= 1.42D-01
 IDIUse=3 WtCom= 7.00D-01 WtEn= 3.00D-01
 Coeff-Com: -0.745D+00 0.175D+01
 Coeff-En:   0.000D+00 0.100D+01
 Coeff:     -0.522D+00 0.152D+01
 Gap=     0.282 Goal=   None    Shift=    0.000
 Gap=     0.525 Goal=   None    Shift=    0.000
 RMSDP=9.23D-03 MaxDP=8.54D-02 DE=-2.36D-02 OVMax= 2.51D-02

 Cycle   3  Pass 0  IDiag  1:
 Density matrix breaks symmetry, PCut= 1.00D-04
 Density has only Abelian symmetry.
 E= -37.7979813976843     Delta-E=       -0.021348364772 Rises=F Damp=F
 DIIS: error= 3.82D-03 at cycle   3 NSaved=   3.
 NSaved= 3 IEnMin= 3 EnMin= -37.7979813976843     IErMin= 3 ErrMin= 3.82D-03
 ErrMax= 3.82D-03  0.00D+00 EMaxC= 1.00D-01 BMatC= 1.99D-04 BMatP= 2.72D-02
 IDIUse=3 WtCom= 9.62D-01 WtEn= 3.82D-02
 Coeff-Com:  0.392D+00-0.877D+00 0.148D+01
 Coeff-En:   0.000D+00 0.000D+00 0.100D+01
 Coeff:      0.377D+00-0.843D+00 0.147D+01
 Gap=     0.283 Goal=   None    Shift=    0.000
 Gap=     0.519 Goal=   None    Shift=    0.000
 RMSDP=1.56D-03 MaxDP=2.23D-02 DE=-2.13D-02 OVMax= 1.08D-02

 Cycle   4  Pass 0  IDiag  1:
 Density matrix breaks symmetry, PCut= 1.00D-04
 Density has only Abelian symmetry.
 E= -37.7981007831788     Delta-E=       -0.000119385494 Rises=F Damp=F
 DIIS: error= 3.98D-04 at cycle   4 NSaved=   4.
 NSaved= 4 IEnMin= 4 EnMin= -37.7981007831788     IErMin= 4 ErrMin= 3.98D-04
 ErrMax= 3.98D-04  0.00D+00 EMaxC= 1.00D-01 BMatC= 2.61D-06 BMatP= 1.99D-04
 IDIUse=3 WtCom= 9.96D-01 WtEn= 3.98D-03
 Coeff-Com: -0.839D-01 0.184D+00-0.410D+00 0.131D+01
 Coeff-En:   0.000D+00 0.000D+00 0.000D+00 0.100D+01
 Coeff:     -0.836D-01 0.184D+00-0.408D+00 0.131D+01
 Gap=     0.283 Goal=   None    Shift=    0.000
 Gap=     0.519 Goal=   None    Shift=    0.000
 RMSDP=2.24D-04 MaxDP=2.89D-03 DE=-1.19D-04 OVMax= 1.44D-03

 Cycle   5  Pass 0  IDiag  1:
 Density matrix breaks symmetry, PCut= 1.00D-04
 Density has only Abelian symmetry.
 E= -37.7981027767556     Delta-E=       -0.000001993577 Rises=F Damp=F
 DIIS: error= 2.01D-05 at cycle   5 NSaved=   5.
 NSaved= 5 IEnMin= 5 EnMin= -37.7981027767556     IErMin= 5 ErrMin= 2.01D-05
 ErrMax= 2.01D-05  0.00D+00 EMaxC= 1.00D-01 BMatC= 1.39D-08 BMatP= 2.61D-06
 IDIUse=1 WtCom= 1.00D+00 WtEn= 0.00D+00
 Coeff-Com: -0.117D-02 0.302D-02 0.133D-02-0.353D-01 0.103D+01
 Coeff:     -0.117D-02 0.302D-02 0.133D-02-0.353D-01 0.103D+01
 Gap=     0.283 Goal=   None    Shift=    0.000
 Gap=     0.519 Goal=   None    Shift=    0.000
 RMSDP=4.81D-06 MaxDP=5.81D-05 DE=-1.99D-06 OVMax= 2.56D-05

 Initial convergence to 1.0D-05 achieved.  Increase integral accuracy.
 Cycle   6  Pass 1  IDiag  1:
 Density matrix breaks symmetry, PCut= 1.00D-04
 Density has only Abelian symmetry.
 E= -37.7981047863354     Delta-E=       -0.000002009580 Rises=F Damp=F
 DIIS: error= 1.13D-05 at cycle   1 NSaved=   1.
 NSaved= 1 IEnMin= 1 EnMin= -37.7981047863354     IErMin= 1 ErrMin= 1.13D-05
 ErrMax= 1.13D-05  0.00D+00 EMaxC= 1.00D-01 BMatC= 3.09D-09 BMatP= 3.09D-09
 IDIUse=1 WtCom= 1.00D+00 WtEn= 0.00D+00
 Coeff-Com:  0.100D+01
 Coeff:      0.100D+01
 Gap=     0.283 Goal=   None    Shift=    0.000
 Gap=     0.519 Goal=   None    Shift=    0.000
 RMSDP=4.81D-06 MaxDP=5.81D-05 DE=-2.01D-06 OVMax= 6.26D-06

 Cycle   7  Pass 1  IDiag  1:
 Density matrix breaks symmetry, PCut= 1.00D-04
 Density has only Abelian symmetry.
 E= -37.7981047870742     Delta-E=       -0.000000000739 Rises=F Damp=F
 DIIS: error= 2.09D-06 at cycle   2 NSaved=   2.
 NSaved= 2 IEnMin= 2 EnMin= -37.7981047870742     IErMin= 2 ErrMin= 2.09D-06
 ErrMax= 2.09D-06  0.00D+00 EMaxC= 1.00D-01 BMatC= 1.01D-10 BMatP= 3.09D-09
 IDIUse=1 WtCom= 1.00D+00 WtEn= 0.00D+00
 Coeff-Com: -0.190D+00 0.119D+01
 Coeff:     -0.190D+00 0.119D+01
 Gap=     0.283 Goal=   None    Shift=    0.000
 Gap=     0.519 Goal=   None    Shift=    0.000
 RMSDP=4.84D-07 MaxDP=5.84D-06 DE=-7.39D-10 OVMax= 2.94D-06

 Cycle   8  Pass 1  IDiag  1:
 Density matrix breaks symmetry, PCut= 1.00D-04
 Density has only Abelian symmetry.
 E= -37.7981047871074     Delta-E=       -0.000000000033 Rises=F Damp=F
 DIIS: error= 2.24D-07 at cycle   3 NSaved=   3.
 NSaved= 3 IEnMin= 3 EnMin= -37.7981047871074     IErMin= 3 ErrMin= 2.24D-07
 ErrMax= 2.24D-07  0.00D+00 EMaxC= 1.00D-01 BMatC= 9.66D-13 BMatP= 1.01D-10
 IDIUse=1 WtCom= 1.00D+00 WtEn= 0.00D+00
 Coeff-Com:  0.183D-01-0.162D+00 0.114D+01
 Coeff:      0.183D-01-0.162D+00 0.114D+01
 Gap=     0.283 Goal=   None    Shift=    0.000
 Gap=     0.519 Goal=   None    Shift=    0.000
 RMSDP=9.63D-08 MaxDP=1.15D-06 DE=-3.32D-11 OVMax= 5.73D-07

 Cycle   9  Pass 1  IDiag  1:
 Density matrix breaks symmetry, PCut= 1.00D-04
 Density has only Abelian symmetry.
 E= -37.7981047871080     Delta-E=       -0.000000000001 Rises=F Damp=F
 DIIS: error= 5.68D-08 at cycle   4 NSaved=   4.
 NSaved= 4 IEnMin= 4 EnMin= -37.7981047871080     IErMin= 4 ErrMin= 5.68D-08
 ErrMax= 5.68D-08  0.00D+00 EMaxC= 1.00D-01 BMatC= 4.09D-14 BMatP= 9.66D-13
 IDIUse=1 WtCom= 1.00D+00 WtEn= 0.00D+00
 Coeff-Com: -0.302D-03 0.134D-01-0.270D+00 0.126D+01
 Coeff:     -0.302D-03 0.134D-01-0.270D+00 0.126D+01
 Gap=     0.283 Goal=   None    Shift=    0.000
 Gap=     0.519 Goal=   None    Shift=    0.000
 RMSDP=2.59D-08 MaxDP=3.52D-07 DE=-6.11D-13 OVMax= 1.75D-07

 Cycle  10  Pass 1  IDiag  1:
 Density matrix breaks symmetry, PCut= 1.00D-04
 Density has only Abelian symmetry.
 E= -37.7981047871080     Delta-E=       -0.000000000000 Rises=F Damp=F
 DIIS: error= 4.96D-09 at cycle   5 NSaved=   5.
 NSaved= 5 IEnMin= 5 EnMin= -37.7981047871080     IErMin= 5 ErrMin= 4.96D-09
 ErrMax= 4.96D-09  0.00D+00 EMaxC= 1.00D-01 BMatC= 7.33D-16 BMatP= 4.09D-14
 IDIUse=1 WtCom= 1.00D+00 WtEn= 0.00D+00
 Coeff-Com: -0.711D-03 0.570D-02-0.330D-01-0.279D-01 0.106D+01
 Coeff:     -0.711D-03 0.570D-02-0.330D-01-0.279D-01 0.106D+01
 Gap=     0.283 Goal=   None    Shift=    0.000
 Gap=     0.519 Goal=   None    Shift=    0.000
 RMSDP=2.78D-09 MaxDP=3.00D-08 DE=-3.55D-14 OVMax= 1.48D-08

 Density matrix breaks symmetry, PCut= 1.00D-04
 Density has only Abelian symmetry.
 SCF Done:  E(UwB97XD) =  -37.7981047871     A.U. after   10 cycles
            NFock= 10  Conv=0.28D-08     -V/T= 2.0044
 <Sx>= 0.0000 <Sy>= 0.0000 <Sz>= 1.0000 <S**2>= 2.0046 S= 1.0015
 <L.S>=  0.00000000000    
 KE= 3.763239307013D+01 PE=-8.804447280701D+01 EE= 1.261397494977D+01
 Annihilation of the first spin contaminant:
 S**2 before annihilation     2.0046,   after     2.0000
 Leave Link  502 at Mon Feb 17 19:45:16 2025, MaxMem=   104857600 cpu:               0.8 elap:               0.4
 (Enter /software/gaussian/G16-C.01/avx2/g16/l601.exe)
 Copying SCF densities to generalized density rwf, IOpCl= 1 IROHF=0.
 SCF density gives NOpUse=  8 NOpAll= 48.
 Marking SCF density as not fully symmetric.

 **********************************************************************

            Population analysis using the SCF Density.

 **********************************************************************

 Orbital symmetries:
 Alpha Orbitals:
       Occupied  (A1G) (T2G) (?A) (?A)
       Virtual   (?A) (A1G) (?A) (?A) (?A) (T2G) (T2G) (T2G) (T2G)
                 (T2G)
 Beta  Orbitals:
       Occupied  (A1G) (?A)
       Virtual   (?B) (?B) (?B) (?A) (?B) (?B) (?B) (?A) (T2G)
                 (T2G) (?A) (T2G)
 Unable to determine electronic state:  partially filled degenerate orbitals.
 Alpha  occ. eigenvalues --  -10.41746  -0.67035  -0.34959  -0.34959
 Alpha virt. eigenvalues --   -0.06645   0.42356   0.54439   0.54439   0.57431
 Alpha virt. eigenvalues --    1.70328   1.70328   1.71369   1.71369   1.73575
  Beta  occ. eigenvalues --  -10.39007  -0.54417
  Beta virt. eigenvalues --   -0.02531   0.01550   0.01550   0.46514   0.61034
  Beta virt. eigenvalues --    0.63452   0.63452   1.79382   1.80664   1.80664
  Beta virt. eigenvalues --    1.85370   1.85370
     Alpha Molecular Orbital Coefficients:
                           1         2         3         4         5
                       (A1G)--O  (T2G)--O      O         O         V
     Eigenvalues --   -10.41746  -0.67035  -0.34959  -0.34959  -0.06645
   1 1   C  1S          0.98989  -0.30944   0.00000   0.00000   0.00000
   2        2S          0.03634   0.70424   0.00000   0.00000   0.00000
   3        3S         -0.01340   0.38777   0.00000   0.00000   0.00000
   4        4PX         0.00000   0.00000   0.00000   0.00000   0.61442
   5        4PY         0.00000   0.00000   0.00000   0.68257   0.00000
   6        4PZ         0.00000   0.00000   0.68257   0.00000   0.00000
   7        5PX         0.00000   0.00000   0.00000   0.00000   0.52717
   8        5PY         0.00000   0.00000   0.00000   0.45298   0.00000
   9        5PZ         0.00000   0.00000   0.45298   0.00000   0.00000
  10        6D 0        0.00029   0.00580   0.00000   0.00000   0.00000
  11        6D+1        0.00000   0.00000   0.00000   0.00000   0.00000
  12        6D-1        0.00000   0.00000   0.00000   0.00000   0.00000
  13        6D+2       -0.00051  -0.01004   0.00000   0.00000   0.00000
  14        6D-2        0.00000   0.00000   0.00000   0.00000   0.00000
                           6         7         8         9        10
                       (A1G)--V      V         V         V     (T2G)--V
     Eigenvalues --     0.42356   0.54439   0.54439   0.57431   1.70328
   1 1   C  1S          0.29125   0.00000   0.00000   0.00000  -0.00000
   2        2S         -1.62194   0.00000   0.00000   0.00000   0.00000
   3        3S          1.64683   0.00000   0.00000   0.00000  -0.00000
   4        4PX         0.00000   0.00000   0.00000  -1.00847   0.00000
   5        4PY         0.00000   0.00000  -0.96366   0.00000   0.00000
   6        4PZ         0.00000  -0.96366   0.00000   0.00000   0.00000
   7        5PX         0.00000   0.00000   0.00000   1.05671   0.00000
   8        5PY         0.00000   0.00000   1.09057   0.00000   0.00000
   9        5PZ         0.00000   1.09057   0.00000   0.00000   0.00000
  10        6D 0       -0.00270   0.00000   0.00000   0.00000   0.86603
  11        6D+1        0.00000   0.00000   0.00000   0.00000   0.00000
  12        6D-1        0.00000   0.00000   0.00000   0.00000   0.00000
  13        6D+2        0.00468   0.00000   0.00000   0.00000   0.50000
  14        6D-2        0.00000   0.00000   0.00000   0.00000   0.00000
                          11        12        13        14
                       (T2G)--V  (T2G)--V  (T2G)--V  (T2G)--V
     Eigenvalues --     1.70328   1.71369   1.71369   1.73575
   1 1   C  1S          0.00000   0.00000   0.00000  -0.00458
   2        2S          0.00000   0.00000   0.00000   0.01695
   3        3S          0.00000   0.00000   0.00000  -0.00440
   4        4PX         0.00000   0.00000   0.00000   0.00000
   5        4PY         0.00000   0.00000   0.00000   0.00000
   6        4PZ         0.00000   0.00000   0.00000   0.00000
   7        5PX         0.00000   0.00000   0.00000   0.00000
   8        5PY         0.00000   0.00000   0.00000   0.00000
   9        5PZ         0.00000   0.00000   0.00000   0.00000
  10        6D 0        0.00000   0.00000   0.00000  -0.49996
  11        6D+1        0.00000   0.00000   1.00000   0.00000
  12        6D-1        1.00000   0.00000   0.00000   0.00000
  13        6D+2        0.00000   0.00000   0.00000   0.86595
  14        6D-2        0.00000   1.00000   0.00000   0.00000
     Beta Molecular Orbital Coefficients:
                           1         2         3         4         5
                       (A1G)--O      O         V         V         V
     Eigenvalues --   -10.39007  -0.54417  -0.02531   0.01550   0.01550
   1 1   C  1S          0.99153  -0.28827   0.00000   0.00000   0.00000
   2        2S          0.03053   0.60582   0.00000   0.00000   0.00000
   3        3S         -0.01112   0.48563   0.00000   0.00000   0.00000
   4        4PX         0.00000   0.00000   0.55320   0.00000   0.00000
   5        4PY         0.00000   0.00000   0.00000   0.00000   0.51315
   6        4PZ         0.00000   0.00000   0.00000   0.51315   0.00000
   7        5PX         0.00000   0.00000   0.58924   0.00000   0.00000
   8        5PY         0.00000   0.00000   0.00000   0.00000   0.62771
   9        5PZ         0.00000   0.00000   0.00000   0.62771   0.00000
  10        6D 0       -0.00017  -0.01013   0.00000   0.00000   0.00000
  11        6D+1        0.00000   0.00000   0.00000   0.00000   0.00000
  12        6D-1        0.00000   0.00000   0.00000   0.00000   0.00000
  13        6D+2        0.00029   0.01755   0.00000   0.00000   0.00000
  14        6D-2        0.00000   0.00000   0.00000   0.00000   0.00000
                           6         7         8         9        10
                           V         V         V         V         V
     Eigenvalues --     0.46514   0.61034   0.63452   0.63452   1.79382
   1 1   C  1S         -0.30685   0.00000   0.00000   0.00000   0.00978
   2        2S          1.66104   0.00000   0.00000   0.00000  -0.03537
   3        3S         -1.62065   0.00000   0.00000   0.00000   0.01267
   4        4PX         0.00000   1.04332   0.00000   0.00000   0.00000
   5        4PY         0.00000   0.00000   0.00000   1.06359   0.00000
   6        4PZ         0.00000   0.00000   1.06359   0.00000   0.00000
   7        5PX         0.00000  -1.02339   0.00000   0.00000   0.00000
   8        5PY         0.00000   0.00000   0.00000  -1.00026   0.00000
   9        5PZ         0.00000   0.00000  -1.00026   0.00000   0.00000
  10        6D 0       -0.00694   0.00000   0.00000   0.00000  -0.49985
  11        6D+1        0.00000   0.00000   0.00000   0.00000   0.00000
  12        6D-1        0.00000   0.00000   0.00000   0.00000   0.00000
  13        6D+2        0.01203   0.00000   0.00000   0.00000   0.86576
  14        6D-2        0.00000   0.00000   0.00000   0.00000   0.00000
                          11        12        13        14
                       (T2G)--V  (T2G)--V      V     (T2G)--V
     Eigenvalues --     1.80664   1.80664   1.85370   1.85370
   1 1   C  1S          0.00000   0.00000   0.00000   0.00000
   2        2S          0.00000   0.00000  -0.00000   0.00000
   3        3S          0.00000   0.00000   0.00000   0.00000
   4        4PX         0.00000   0.00000   0.00000   0.00000
   5        4PY         0.00000   0.00000   0.00000   0.00000
   6        4PZ         0.00000   0.00000   0.00000   0.00000
   7        5PX         0.00000   0.00000   0.00000   0.00000
   8        5PY         0.00000   0.00000   0.00000   0.00000
   9        5PZ         0.00000   0.00000   0.00000   0.00000
  10        6D 0        0.00000   0.00000   0.86603   0.00000
  11        6D+1        0.00000   1.00000   0.00000   0.00000
  12        6D-1        0.00000   0.00000   0.00000   1.00000
  13        6D+2        0.00000   0.00000   0.50000   0.00000
  14        6D-2        1.00000   0.00000   0.00000   0.00000
     Alpha Density Matrix:
                           1         2         3         4         5
   1 1   C  1S          1.07563
   2        2S         -0.18194   0.49728
   3        3S         -0.13325   0.27260   0.15054
   4        4PX         0.00000   0.00000   0.00000   0.00000
   5        4PY         0.00000   0.00000   0.00000  -0.00000   0.46590
   6        4PZ         0.00000   0.00000   0.00000   0.00000   0.00000
   7        5PX         0.00000   0.00000   0.00000   0.00000  -0.00000
   8        5PY         0.00000   0.00000   0.00000  -0.00000   0.30919
   9        5PZ         0.00000   0.00000   0.00000   0.00000  -0.00000
  10        6D 0       -0.00150   0.00409   0.00224   0.00000   0.00000
  11        6D+1       -0.00000   0.00000   0.00000   0.00000   0.00000
  12        6D-1       -0.00000   0.00000   0.00000   0.00000   0.00000
  13        6D+2        0.00261  -0.00709  -0.00389   0.00000   0.00000
  14        6D-2        0.00000  -0.00000  -0.00000   0.00000   0.00000
                           6         7         8         9        10
   6        4PZ         0.46590
   7        5PX         0.00000   0.00000
   8        5PY        -0.00000  -0.00000   0.20519
   9        5PZ         0.30919   0.00000  -0.00000   0.20519
  10        6D 0        0.00000   0.00000   0.00000   0.00000   0.00003
  11        6D+1        0.00000   0.00000   0.00000   0.00000   0.00000
  12        6D-1        0.00000   0.00000   0.00000   0.00000   0.00000
  13        6D+2        0.00000   0.00000   0.00000   0.00000  -0.00006
  14        6D-2        0.00000   0.00000   0.00000   0.00000  -0.00000
                          11        12        13        14
  11        6D+1        0.00000
  12        6D-1        0.00000   0.00000
  13        6D+2       -0.00000  -0.00000   0.00010
  14        6D-2        0.00000   0.00000   0.00000   0.00000
     Beta Density Matrix:
                           1         2         3         4         5
   1 1   C  1S          1.06622
   2        2S         -0.14437   0.36795
   3        3S         -0.15102   0.29387   0.23596
   4        4PX         0.00000   0.00000   0.00000   0.00000
   5        4PY         0.00000   0.00000   0.00000   0.00000   0.00000
   6        4PZ         0.00000   0.00000   0.00000   0.00000   0.00000
   7        5PX         0.00000   0.00000   0.00000   0.00000   0.00000
   8        5PY         0.00000   0.00000   0.00000   0.00000   0.00000
   9        5PZ         0.00000   0.00000   0.00000   0.00000   0.00000
  10        6D 0        0.00276  -0.00614  -0.00492   0.00000   0.00000
  11        6D+1        0.00000  -0.00000  -0.00000   0.00000   0.00000
  12        6D-1        0.00000   0.00000   0.00000   0.00000   0.00000
  13        6D+2       -0.00477   0.01064   0.00852   0.00000   0.00000
  14        6D-2       -0.00000   0.00000   0.00000   0.00000   0.00000
                           6         7         8         9        10
   6        4PZ         0.00000
   7        5PX         0.00000   0.00000
   8        5PY         0.00000   0.00000   0.00000
   9        5PZ         0.00000   0.00000   0.00000   0.00000
  10        6D 0        0.00000   0.00000   0.00000   0.00000   0.00010
  11        6D+1        0.00000   0.00000   0.00000   0.00000   0.00000
  12        6D-1        0.00000   0.00000   0.00000   0.00000  -0.00000
  13        6D+2        0.00000   0.00000   0.00000   0.00000  -0.00018
  14        6D-2        0.00000   0.00000   0.00000   0.00000  -0.00000
                          11        12        13        14
  11        6D+1        0.00000
  12        6D-1        0.00000  -0.00000
  13        6D+2       -0.00000   0.00000   0.00031
  14        6D-2        0.00000   0.00000   0.00000   0.00000
    Full Mulliken population analysis:
                           1         2         3         4         5
   1 1   C  1S          2.14185
   2        2S         -0.10624   0.86523
   3        3S         -0.04315   0.45231   0.38651
   4        4PX         0.00000   0.00000   0.00000   0.00000
   5        4PY         0.00000   0.00000   0.00000   0.00000   0.46590
   6        4PZ         0.00000   0.00000   0.00000  -0.00000   0.00000
   7        5PX         0.00000   0.00000   0.00000   0.00000   0.00000
   8        5PY         0.00000   0.00000   0.00000   0.00000   0.16446
   9        5PZ         0.00000   0.00000   0.00000  -0.00000  -0.00000
  10        6D 0        0.00000   0.00000   0.00000   0.00000   0.00000
  11        6D+1        0.00000  -0.00000  -0.00000   0.00000   0.00000
  12        6D-1       -0.00000   0.00000   0.00000   0.00000   0.00000
  13        6D+2        0.00000   0.00000   0.00000   0.00000   0.00000
  14        6D-2        0.00000   0.00000  -0.00000   0.00000   0.00000
                           6         7         8         9        10
   6        4PZ         0.46590
   7        5PX        -0.00000   0.00000
   8        5PY        -0.00000   0.00000   0.20519
   9        5PZ         0.16446  -0.00000  -0.00000   0.20519
  10        6D 0        0.00000   0.00000   0.00000   0.00000   0.00014
  11        6D+1        0.00000   0.00000   0.00000   0.00000  -0.00000
  12        6D-1        0.00000   0.00000   0.00000   0.00000  -0.00000
  13        6D+2        0.00000   0.00000   0.00000   0.00000   0.00000
  14        6D-2        0.00000   0.00000   0.00000   0.00000  -0.00000
                          11        12        13        14
  11        6D+1        0.00000
  12        6D-1        0.00000   0.00000
  13        6D+2        0.00000  -0.00000   0.00041
  14        6D-2        0.00000   0.00000   0.00000   0.00000
     Gross orbital populations:
                         Total     Alpha     Beta      Spin
   1 1   C  1S          1.99247   0.99617   0.99630  -0.00013
   2        2S          1.21131   0.65571   0.55560   0.10011
   3        3S          0.79567   0.34798   0.44769  -0.09971
   4        4PX         0.00000   0.00000   0.00000   0.00000
   5        4PY         0.63036   0.63036   0.00000   0.63036
   6        4PZ         0.63036   0.63036   0.00000   0.63036
   7        5PX         0.00000   0.00000   0.00000   0.00000
   8        5PY         0.36964   0.36964   0.00000   0.36964
   9        5PZ         0.36964   0.36964   0.00000   0.36964
  10        6D 0        0.00014   0.00003   0.00010  -0.00007
  11        6D+1        0.00000   0.00000   0.00000  -0.00000
  12        6D-1        0.00000   0.00000  -0.00000   0.00000
  13        6D+2        0.00041   0.00010   0.00031  -0.00021
  14        6D-2        0.00000   0.00000   0.00000  -0.00000
          Condensed to atoms (all electrons):
               1
     1  C    6.000000
          Atomic-Atomic Spin Densities.
               1
     1  C    2.000000
 Mulliken charges and spin densities:
               1          2
     1  C   -0.000000   2.000000
 Sum of Mulliken charges =  -0.00000   2.00000
 Mulliken charges and spin densities with hydrogens summed into heavy atoms:
               1          2
     1  C   -0.000000   2.000000
 Electronic spatial extent (au):  <R**2>=             13.5712
 Charge=             -0.0000 electrons
 Dipole moment (field-independent basis, Debye):
    X=              0.0000    Y=              0.0000    Z=              0.0000  Tot=              0.0000
 Quadrupole moment (field-independent basis, Debye-Ang):
   XX=             -4.8299   YY=             -6.7120   ZZ=             -6.7120
   XY=              0.0000   XZ=             -0.0000   YZ=             -0.0000
 Traceless Quadrupole moment (field-independent basis, Debye-Ang):
   XX=              1.2547   YY=             -0.6274   ZZ=             -0.6274
   XY=              0.0000   XZ=             -0.0000   YZ=             -0.0000
 Octapole moment (field-independent basis, Debye-Ang**2):
  XXX=              0.0000  YYY=              0.0000  ZZZ=              0.0000  XYY=              0.0000
  XXY=              0.0000  XXZ=              0.0000  XZZ=              0.0000  YZZ=              0.0000
  YYZ=              0.0000  XYZ=              0.0000
 Hexadecapole moment (field-independent basis, Debye-Ang**3):
 XXXX=             -4.6048 YYYY=             -8.0326 ZZZZ=             -8.0326 XXXY=              0.0000
 XXXZ=             -0.0000 YYYX=              0.0000 YYYZ=              0.0000 ZZZX=             -0.0000
 ZZZY=              0.0000 XXYY=             -2.1062 XXZZ=             -2.1062 YYZZ=             -2.6775
 XXYZ=              0.0000 YYXZ=             -0.0000 ZZXY=              0.0000
 N-N= 0.000000000000D+00 E-N=-8.804447284455D+01  KE= 3.763239307013D+01
 Symmetry AG   KE= 3.505653251139D+01
 Symmetry B1G  KE= 8.593979116789D-36
 Symmetry B2G  KE= 8.593979116789D-36
 Symmetry B3G  KE= 3.712553464526D-53
 Symmetry AU   KE= 0.000000000000D+00
 Symmetry B1U  KE= 1.287930279373D+00
 Symmetry B2U  KE= 1.287930279373D+00
 Symmetry B3U  KE= 4.828965089690D-33
 Symmetry AG   SP=-7.019538885868D-16
 Symmetry B1G  SP=-1.552543919512D-36
 Symmetry B2G  SP=-1.552543919512D-36
 Symmetry B3G  SP= 5.928685155929D-53
 Symmetry AU   SP= 0.000000000000D+00
 Symmetry B1U  SP= 1.000000000000D+00
 Symmetry B2U  SP= 1.000000000000D+00
 Symmetry B3U  SP= 3.749399456655D-33
 Orbital energies and kinetic energies (alpha):
                                 1                 2
   1         (A1G)--O        -10.417459         15.789908
   2         (T2G)--O         -0.670350          1.826632
   3         O                -0.349588          1.287930
   4         O                -0.349588          1.287930
   5         V                -0.066455          1.133835
   6         (A1G)--V          0.423562          1.933630
   7         V                 0.544393          1.783195
   8         V                 0.544393          1.783195
   9         V                 0.574315          1.937291
  10         (T2G)--V          1.703284          2.800000
  11         (T2G)--V          1.703284          2.800000
  12         (T2G)--V          1.713690          2.800000
  13         (T2G)--V          1.713690          2.800000
  14         (T2G)--V          1.735749          2.799966
 Orbital energies and kinetic energies (beta):
                                 1                 2
   1         (A1G)--O        -10.390072         15.838046
   2         O                -0.544170          1.601947
   3         V                -0.025312          1.006808
   4         V                 0.015496          0.929680
   5         V                 0.015496          0.929680
   6         V                 0.465138          2.109958
   7         V                 0.610341          2.064317
   8         V                 0.634516          2.141445
   9         V                 0.634516          2.141445
  10         V                 1.793817          2.800185
  11         (T2G)--V          1.806637          2.800000
  12         (T2G)--V          1.806637          2.800000
  13         V                 1.853696          2.800000
  14         (T2G)--V          1.853696          2.800000
 Total kinetic energy from orbitals= 3.763239307013D+01
                          Isotropic Fermi Contact Couplings
        Atom                 a.u.       MegaHertz       Gauss      10(-4) cm-1
     1  C(13)              0.36650     206.00800      73.50878      68.71687
 --------------------------------------------------------
       Center         ----  Spin Dipole Couplings  ----
                      3XX-RR        3YY-RR        3ZZ-RR
 --------------------------------------------------------
     1   Atom       -1.358831      0.679415      0.679415
 --------------------------------------------------------
                        XY            XZ            YZ
 --------------------------------------------------------
     1   Atom        0.000000      0.000000      0.000000
 --------------------------------------------------------


 ---------------------------------------------------------------------------------
              Anisotropic Spin Dipole Couplings in Principal Axis System
 ---------------------------------------------------------------------------------

       Atom             a.u.   MegaHertz   Gauss  10(-4) cm-1        Axes

              Baa    -1.3588  -182.342   -65.064   -60.823  1.0000  0.0000  0.0000
     1 C(13)  Bbb     0.6794    91.171    32.532    30.411  0.0000  0.0000  1.0000
              Bcc     0.6794    91.171    32.532    30.411 -0.0000  1.0000  0.0000
 

 ---------------------------------------------------------------------------------

 No NMR shielding tensors so no spin-rotation constants.
 Leave Link  601 at Mon Feb 17 19:45:16 2025, MaxMem=   104857600 cpu:               0.5 elap:               0.2
 (Enter /software/gaussian/G16-C.01/avx2/g16/l9999.exe)
 Unable to Open any file for archive entry.
 1\1\GINC-LCMDLC3\SP\UwB97XD\def2SVP\C1(3)\STUDENT5\17-Feb-2025\0\\#p w
 B97XD/Def2SVP SP pop=full gfinput\\C 1\\0,3\C,0,0.,0.,0.\\Version=ES64
 L-G16RevC.01\HF=-37.7981048\S2=2.004608\S2-1=0.\S2A=2.\RMSD=2.784e-09\
 Dipole=0.,0.,0.\Quadrupole=-0.4664338,-0.4664338,0.9328677,0.,0.,0.\PG
 =OH [O(C1)]\\@
 The archive entry for this job was punched.


 Discoveries are often made by not following instructions,
 by going off the main road, by trying the untried.
 -- Frank Tyger
 Job cpu time:       0 days  0 hours  0 minutes  2.9 seconds.
 Elapsed time:       0 days  0 hours  0 minutes  1.4 seconds.
 File lengths (MBytes):  RWF=      6 Int=      0 D2E=      0 Chk=      1 Scr=      1
 Normal termination of Gaussian 16 at Mon Feb 17 19:45:17 2025.
