 Entering Gaussian System, Link 0=g16
 Input=Atom_en_O.inp
 Output=Atom_en_O.log
 Initial command:
 /software/gaussian/G16-C.01/avx2/g16/l1.exe "/home/student5/lise/MasterProject_SPAHM-ENN/Atomization_energy/Atom_en_O/Gau-48689.inp" -scrdir="/home/student5/lise/MasterProject_SPAHM-ENN/Atomization_energy/Atom_en_O/"
 Default is to use a total of   2 processors:
                                2 via shared-memory
                                1 via Linda
 Entering Link 1 = /software/gaussian/G16-C.01/avx2/g16/l1.exe PID=     48690.
  
 Copyright (c) 1988-2019, Gaussian, Inc.  All Rights Reserved.
  
 This is part of the Gaussian(R) 16 program.  It is based on
 the Gaussian(R) 09 system (copyright 2009, Gaussian, Inc.),
 the Gaussian(R) 03 system (copyright 2003, Gaussian, Inc.),
 the Gaussian(R) 98 system (copyright 1998, Gaussian, Inc.),
 the Gaussian(R) 94 system (copyright 1995, Gaussian, Inc.),
 the Gaussian 92(TM) system (copyright 1992, Gaussian, Inc.),
 the Gaussian 90(TM) system (copyright 1990, Gaussian, Inc.),
 the Gaussian 88(TM) system (copyright 1988, Gaussian, Inc.),
 the Gaussian 86(TM) system (copyright 1986, Carnegie Mellon
 University), and the Gaussian 82(TM) system (copyright 1983,
 Carnegie Mellon University). Gaussian is a federally registered
 trademark of Gaussian, Inc.
  
 This software contains proprietary and confidential information,
 including trade secrets, belonging to Gaussian, Inc.
  
 This software is provided under written license and may be
 used, copied, transmitted, or stored only in accord with that
 written license.
  
 The following legend is applicable only to US Government
 contracts under FAR:
  
                    RESTRICTED RIGHTS LEGEND
  
 Use, reproduction and disclosure by the US Government is
 subject to restrictions as set forth in subparagraphs (a)
 and (c) of the Commercial Computer Software - Restricted
 Rights clause in FAR 52.227-19.
  
 Gaussian, Inc.
 340 Quinnipiac St., Bldg. 40, Wallingford CT 06492
  
  
 ---------------------------------------------------------------
 Warning -- This program may not be used in any manner that
 competes with the business of Gaussian, Inc. or will provide
 assistance to any competitor of Gaussian, Inc.  The licensee
 of this program is prohibited from giving any competitor of
 Gaussian, Inc. access to this program.  By using this program,
 the user acknowledges that Gaussian, Inc. is engaged in the
 business of creating and licensing software in the field of
 computational chemistry and represents and warrants to the
 licensee that it is not a competitor of Gaussian, Inc. and that
 it will not use this program in any manner prohibited above.
 ---------------------------------------------------------------
  

 Cite this work as:
 Gaussian 16, Revision C.01,
 M. J. Frisch, G. W. Trucks, H. B. Schlegel, G. E. Scuseria, 
 M. A. Robb, J. R. Cheeseman, G. Scalmani, V. Barone, 
 G. A. Petersson, H. Nakatsuji, X. Li, M. Caricato, A. V. Marenich, 
 J. Bloino, B. G. Janesko, R. Gomperts, B. Mennucci, H. P. Hratchian, 
 J. V. Ortiz, A. F. Izmaylov, J. L. Sonnenberg, D. Williams-Young, 
 F. Ding, F. Lipparini, F. Egidi, J. Goings, B. Peng, A. Petrone, 
 T. Henderson, D. Ranasinghe, V. G. Zakrzewski, J. Gao, N. Rega, 
 G. Zheng, W. Liang, M. Hada, M. Ehara, K. Toyota, R. Fukuda, 
 J. Hasegawa, M. Ishida, T. Nakajima, Y. Honda, O. Kitao, H. Nakai, 
 T. Vreven, K. Throssell, J. A. Montgomery, Jr., J. E. Peralta, 
 F. Ogliaro, M. J. Bearpark, J. J. Heyd, E. N. Brothers, K. N. Kudin, 
 V. N. Staroverov, T. A. Keith, R. Kobayashi, J. Normand, 
 K. Raghavachari, A. P. Rendell, J. C. Burant, S. S. Iyengar, 
 J. Tomasi, M. Cossi, J. M. Millam, M. Klene, C. Adamo, R. Cammi, 
 J. W. Ochterski, R. L. Martin, K. Morokuma, O. Farkas, 
 J. B. Foresman, and D. J. Fox, Gaussian, Inc., Wallingford CT, 2019.
 
 ******************************************
 Gaussian 16:  ES64L-G16RevC.01  3-Jul-2019
                17-Feb-2025 
 ******************************************
 %chk=Atom_en_O.chk
 -------------------------------------
 #p wB97XD/Def2SVP SP pop=full gfinput
 -------------------------------------
 1/38=1,172=1/1;
 2/12=2,17=6,18=5,40=1/2;
 3/5=43,7=101,11=2,24=10,25=1,30=1,74=-58/1,2,3;
 4//1;
 5/5=2,38=5/2;
 6/7=3,28=1/1;
 99/5=1,9=1/99;
 Leave Link    1 at Mon Feb 17 19:42:22 2025, MaxMem=           0 cpu:               0.2 elap:               0.1
 (Enter /software/gaussian/G16-C.01/avx2/g16/l101.exe)
 ---
 O 1
 ---
 Symbolic Z-matrix:
 Charge =  0 Multiplicity = 3
 O                     0.        0.        0. 
 
 ITRead=  0
 MicOpt= -1
 NAtoms=      1 NQM=        1 NQMF=       0 NMMI=      0 NMMIF=      0
                NMic=       0 NMicF=      0.
                    Isotopes and Nuclear Properties:
 (Nuclear quadrupole moments (NQMom) in fm**2, nuclear magnetic moments (NMagM)
  in nuclear magnetons)

  Atom         1
 IAtWgt=          16
 AtmWgt=  15.9949146
 NucSpn=           0
 AtZEff=  -0.0000000
 NQMom=    0.0000000
 NMagM=    0.0000000
 AtZNuc=   8.0000000
 Leave Link  101 at Mon Feb 17 19:42:22 2025, MaxMem=   104857600 cpu:               0.5 elap:               0.2
 (Enter /software/gaussian/G16-C.01/avx2/g16/l202.exe)
                          Input orientation:                          
 ---------------------------------------------------------------------
 Center     Atomic      Atomic             Coordinates (Angstroms)
 Number     Number       Type             X           Y           Z
 ---------------------------------------------------------------------
      1          8           0        0.000000    0.000000    0.000000
 ---------------------------------------------------------------------
 Stoichiometry    O(3)
 Framework group  OH[O(O)]
 Deg. of freedom     0
 Full point group                 OH      NOp  48
 Largest Abelian subgroup         D2H     NOp   8
 Largest concise Abelian subgroup C1      NOp   1
                         Standard orientation:                         
 ---------------------------------------------------------------------
 Center     Atomic      Atomic             Coordinates (Angstroms)
 Number     Number       Type             X           Y           Z
 ---------------------------------------------------------------------
      1          8           0        0.000000    0.000000    0.000000
 ---------------------------------------------------------------------
 Leave Link  202 at Mon Feb 17 19:42:22 2025, MaxMem=   104857600 cpu:               0.0 elap:               0.0
 (Enter /software/gaussian/G16-C.01/avx2/g16/l301.exe)
 Standard basis: def2SVP (5D, 7F)
 Ernie: Thresh=  0.10000D-02 Tol=  0.10000D-05 Strict=F.
 AO basis set in the form of general basis input (Overlap normalization):
      1 0
 S   5 1.00       0.000000000000
      0.2266176779D+04 -0.5389350392D-02
      0.3408701019D+03 -0.4023472139D-01
      0.7736313517D+02 -0.1800818421D+00
      0.2147964494D+02 -0.4682885766D+00
      0.6658943312D+01 -0.4469261716D+00
 S   1 1.00       0.000000000000
      0.8097597567D+00  0.1000000000D+01
 S   1 1.00       0.000000000000
      0.2553077223D+00  0.1000000000D+01
 P   3 1.00       0.000000000000
      0.1772150432D+02  0.6263024876D-01
      0.3863550544D+01  0.3333113848D+00
      0.1048092088D+01  0.7414863831D+00
 P   1 1.00       0.000000000000
      0.2764154441D+00  0.1000000000D+01
 D   1 1.00       0.000000000000
      0.1200000000D+01  0.1000000000D+01
 ****

 There are     6 symmetry adapted cartesian basis functions of AG  symmetry.
 There are     1 symmetry adapted cartesian basis functions of B1G symmetry.
 There are     1 symmetry adapted cartesian basis functions of B2G symmetry.
 There are     1 symmetry adapted cartesian basis functions of B3G symmetry.
 There are     0 symmetry adapted cartesian basis functions of AU  symmetry.
 There are     2 symmetry adapted cartesian basis functions of B1U symmetry.
 There are     2 symmetry adapted cartesian basis functions of B2U symmetry.
 There are     2 symmetry adapted cartesian basis functions of B3U symmetry.
 There are     5 symmetry adapted basis functions of AG  symmetry.
 There are     1 symmetry adapted basis functions of B1G symmetry.
 There are     1 symmetry adapted basis functions of B2G symmetry.
 There are     1 symmetry adapted basis functions of B3G symmetry.
 There are     0 symmetry adapted basis functions of AU  symmetry.
 There are     2 symmetry adapted basis functions of B1U symmetry.
 There are     2 symmetry adapted basis functions of B2U symmetry.
 There are     2 symmetry adapted basis functions of B3U symmetry.
    14 basis functions,    25 primitive gaussians,    15 cartesian basis functions
     5 alpha electrons        3 beta electrons
       nuclear repulsion energy         0.0000000000 Hartrees.
 IExCor= 4639 DFT=T Ex+Corr=wB97XD ExCW=0 ScaHFX=  1.000000
 ScaDFX=  1.000000  1.000000  1.000000  1.000000 ScalE2=  1.000000  1.000000
 IRadAn=      5 IRanWt=     -1 IRanGd=            0 ICorTp=0 IEmpDi=121
 HFx  wShort=  0.000000 wLong=  0.200000 cFull=  0.222036 cShort=  0.000000 cLong=  0.777964
 DFx  wShort=  0.000000 wLong=  0.200000 cFull=  0.000000 cShort=  0.000000 cLong=  1.000000
 NAtoms=    1 NActive=    1 NUniq=    1 SFac= 1.00D+00 NAtFMM=   60 NAOKFM=F Big=F
 Integral buffers will be    131072 words long.
 Raffenetti 2 integral format.
 Two-electron integral symmetry is turned on.
 R6Disp:  Grimme-D2 Dispersion energy=        0.0000000000 Hartrees.
 Nuclear repulsion after empirical dispersion term =        0.0000000000 Hartrees.
 Leave Link  301 at Mon Feb 17 19:42:22 2025, MaxMem=   104857600 cpu:               0.1 elap:               0.1
 (Enter /software/gaussian/G16-C.01/avx2/g16/l302.exe)
 NPDir=0 NMtPBC=     1 NCelOv=     1 NCel=       1 NClECP=     1 NCelD=      1
         NCelK=      1 NCelE2=     1 NClLst=     1 CellRange=     0.0.
 One-electron integrals computed using PRISM.
 One-electron integral symmetry used in STVInt
  48 Symmetry operations used in ECPInt.
 ECPInt:  NShTT=      21 NPrTT=      91 LenC2=      22 LenP2D=      91.
 LDataN:  DoStor=T MaxTD1= 4 Len=   56
 NBasis=    14 RedAO= T EigKep=  1.87D-01  NBF=     5     1     1     1     0     2     2     2
 NBsUse=    14 1.00D-06 EigRej= -1.00D+00 NBFU=     5     1     1     1     0     2     2     2
 Precomputing XC quadrature grid using
 IXCGrd= 4 IRadAn=           5 IRanWt=          -1 IRanGd=           0 AccXCQ= 0.00D+00.
 Generated NRdTot=       0 NPtTot=           0 NUsed=           0 NTot=          32
 NSgBfM=    15    15    15    15    15 MxSgAt=     1 MxSgA2=     1.
 Leave Link  302 at Mon Feb 17 19:42:22 2025, MaxMem=   104857600 cpu:               0.3 elap:               0.2
 (Enter /software/gaussian/G16-C.01/avx2/g16/l303.exe)
 DipDrv:  MaxL=1.
 Leave Link  303 at Mon Feb 17 19:42:22 2025, MaxMem=   104857600 cpu:               0.1 elap:               0.0
 (Enter /software/gaussian/G16-C.01/avx2/g16/l401.exe)
 ExpMin= 2.55D-01 ExpMax= 2.27D+03 ExpMxC= 3.41D+02 IAcc=3 IRadAn=         5 AccDes= 0.00D+00
 Harris functional with IExCor= 4639 and IRadAn=       5 diagonalized for initial guess.
 HarFok:  IExCor= 4639 AccDes= 0.00D+00 IRadAn=         5 IDoV= 1 UseB2=F ITyADJ=14
 ICtDFT=  3500011 ScaDFX=  1.000000  1.000000  1.000000  1.000000
 FoFCou: FMM=F IPFlag=           0 FMFlag=      100000 FMFlg1=           0
         NFxFlg=           0 DoJE=T BraDBF=F KetDBF=T FulRan=T
         wScrn=  0.000000 ICntrl=       500 IOpCl=  0 I1Cent=   200000004 NGrid=           0
         NMat0=    1 NMatS0=      1 NMatT0=    0 NMatD0=    1 NMtDS0=    0 NMtDT0=    0
 Petite list used in FoFCou.
 Harris En= -72.4481387529276    
 JPrj=0 DoOrth=F DoCkMO=F.
 Initial guess orbital symmetries:
 Alpha Orbitals:
       Occupied  (A1G) (A1G) (T1U) (T1U) (T1U)
       Virtual   (A1G) (T1U) (T1U) (T1U) (T2G) (T2G) (T2G) (EG)
                 (EG)
 Beta  Orbitals:
       Occupied  (A1G) (A1G) (T1U)
       Virtual   (T1U) (T1U) (A1G) (T1U) (T1U) (T1U) (T2G) (T2G)
                 (T2G) (EG) (EG)
 Initial guess <Sx>= 0.0000 <Sy>= 0.0000 <Sz>= 1.0000 <S**2>= 2.0000 S= 1.0000
 Leave Link  401 at Mon Feb 17 19:42:23 2025, MaxMem=   104857600 cpu:               0.5 elap:               0.2
 (Enter /software/gaussian/G16-C.01/avx2/g16/l502.exe)
 Keep R1 and R2 ints in memory in symmetry-blocked form, NReq=1740521.
 FoFCou: FMM=F IPFlag=           0 FMFlag=           0 FMFlg1=           0
         NFxFlg=           0 DoJE=F BraDBF=F KetDBF=F FulRan=T
         wScrn=  0.000000 ICntrl=       600 IOpCl=  0 I1Cent=           0 NGrid=           0
         NMat0=    1 NMatS0=    105 NMatT0=    0 NMatD0=    1 NMtDS0=    0 NMtDT0=    0
 Petite list used in FoFCou.
 UHF open shell SCF:
 Using DIIS extrapolation, IDIIS=  1040.
 NGot=   104857600 LenX=   104852321 LenY=   104851439
 Requested convergence on RMS density matrix=1.00D-08 within 128 cycles.
 Requested convergence on MAX density matrix=1.00D-06.
 Requested convergence on             energy=1.00D-06.
 No special actions if energy rises.
 Integral accuracy reduced to 1.0D-05 until final iterations.

 Cycle   1  Pass 0  IDiag  1:
 Density matrix breaks symmetry, PCut= 1.00D-04
 Density has only Abelian symmetry.
 E= -74.9109179841230    
 DIIS: error= 9.52D-02 at cycle   1 NSaved=   1.
 NSaved= 1 IEnMin= 1 EnMin= -74.9109179841230     IErMin= 1 ErrMin= 9.52D-02
 ErrMax= 9.52D-02  0.00D+00 EMaxC= 1.00D-01 BMatC= 3.74D-01 BMatP= 3.74D-01
 IDIUse=3 WtCom= 4.78D-02 WtEn= 9.52D-01
 Coeff-Com:  0.100D+01
 Coeff-En:   0.100D+01
 Coeff:      0.100D+01
 Gap=     1.309 Goal=   None    Shift=    0.000
 Gap=     0.327 Goal=   None    Shift=    0.000
 GapD=    0.327 DampG=1.000 DampE=0.500 DampFc=0.5000 IDamp=-1.
 Damping current iteration by 5.00D-01
 RMSDP=2.41D-02 MaxDP=1.72D-01              OVMax= 8.39D-02

 Cycle   2  Pass 0  IDiag  1:
 Density matrix breaks symmetry, PCut= 1.00D-04
 Density has only Abelian symmetry.
 E= -74.9473528305407     Delta-E=       -0.036434846418 Rises=F Damp=T
 DIIS: error= 3.37D-02 at cycle   2 NSaved=   2.
 NSaved= 2 IEnMin= 2 EnMin= -74.9473528305407     IErMin= 2 ErrMin= 3.37D-02
 ErrMax= 3.37D-02  0.00D+00 EMaxC= 1.00D-01 BMatC= 3.50D-02 BMatP= 3.74D-01
 IDIUse=3 WtCom= 6.63D-01 WtEn= 3.37D-01
 Coeff-Com: -0.382D+00 0.138D+01
 Coeff-En:   0.000D+00 0.100D+01
 Coeff:     -0.253D+00 0.125D+01
 Gap=     1.287 Goal=   None    Shift=    0.000
 Gap=     0.339 Goal=   None    Shift=    0.000
 RMSDP=5.12D-03 MaxDP=4.26D-02 DE=-3.64D-02 OVMax= 2.96D-02

 Cycle   3  Pass 0  IDiag  1:
 Density matrix breaks symmetry, PCut= 1.00D-04
 Density has only Abelian symmetry.
 E= -74.9764783625934     Delta-E=       -0.029125532053 Rises=F Damp=F
 DIIS: error= 5.65D-03 at cycle   3 NSaved=   3.
 NSaved= 3 IEnMin= 3 EnMin= -74.9764783625934     IErMin= 3 ErrMin= 5.65D-03
 ErrMax= 5.65D-03  0.00D+00 EMaxC= 1.00D-01 BMatC= 5.29D-04 BMatP= 3.50D-02
 IDIUse=3 WtCom= 9.44D-01 WtEn= 5.65D-02
 Coeff-Com:  0.112D+00-0.307D+00 0.120D+01
 Coeff-En:   0.000D+00 0.000D+00 0.100D+01
 Coeff:      0.105D+00-0.290D+00 0.118D+01
 Gap=     1.289 Goal=   None    Shift=    0.000
 Gap=     0.337 Goal=   None    Shift=    0.000
 RMSDP=9.96D-04 MaxDP=1.05D-02 DE=-2.91D-02 OVMax= 5.22D-03

 Cycle   4  Pass 0  IDiag  1:
 Density matrix breaks symmetry, PCut= 1.00D-04
 Density has only Abelian symmetry.
 E= -74.9766477350531     Delta-E=       -0.000169372460 Rises=F Damp=F
 DIIS: error= 7.99D-04 at cycle   4 NSaved=   4.
 NSaved= 4 IEnMin= 4 EnMin= -74.9766477350531     IErMin= 4 ErrMin= 7.99D-04
 ErrMax= 7.99D-04  0.00D+00 EMaxC= 1.00D-01 BMatC= 1.38D-05 BMatP= 5.29D-04
 IDIUse=3 WtCom= 9.92D-01 WtEn= 7.99D-03
 Coeff-Com: -0.260D-01 0.617D-01-0.360D+00 0.132D+01
 Coeff-En:   0.000D+00 0.000D+00 0.000D+00 0.100D+01
 Coeff:     -0.258D-01 0.612D-01-0.357D+00 0.132D+01
 Gap=     1.289 Goal=   None    Shift=    0.000
 Gap=     0.337 Goal=   None    Shift=    0.000
 RMSDP=2.40D-04 MaxDP=2.05D-03 DE=-1.69D-04 OVMax= 9.62D-04

 Cycle   5  Pass 0  IDiag  1:
 Density matrix breaks symmetry, PCut= 1.00D-04
 Density has only Abelian symmetry.
 E= -74.9766544409159     Delta-E=       -0.000006705863 Rises=F Damp=F
 DIIS: error= 7.86D-05 at cycle   5 NSaved=   5.
 NSaved= 5 IEnMin= 5 EnMin= -74.9766544409159     IErMin= 5 ErrMin= 7.86D-05
 ErrMax= 7.86D-05  0.00D+00 EMaxC= 1.00D-01 BMatC= 1.07D-07 BMatP= 1.38D-05
 IDIUse=1 WtCom= 1.00D+00 WtEn= 0.00D+00
 Coeff-Com:  0.572D-02-0.131D-01 0.793D-01-0.340D+00 0.127D+01
 Coeff:      0.572D-02-0.131D-01 0.793D-01-0.340D+00 0.127D+01
 Gap=     1.289 Goal=   None    Shift=    0.000
 Gap=     0.337 Goal=   None    Shift=    0.000
 RMSDP=1.80D-05 MaxDP=1.98D-04 DE=-6.71D-06 OVMax= 4.13D-05

 Cycle   6  Pass 0  IDiag  1:
 Density matrix breaks symmetry, PCut= 1.00D-04
 Density has only Abelian symmetry.
 E= -74.9766544893966     Delta-E=       -0.000000048481 Rises=F Damp=F
 DIIS: error= 8.94D-06 at cycle   6 NSaved=   6.
 NSaved= 6 IEnMin= 6 EnMin= -74.9766544893966     IErMin= 6 ErrMin= 8.94D-06
 ErrMax= 8.94D-06  0.00D+00 EMaxC= 1.00D-01 BMatC= 8.19D-10 BMatP= 1.07D-07
 IDIUse=1 WtCom= 1.00D+00 WtEn= 0.00D+00
 Coeff-Com: -0.112D-02 0.254D-02-0.144D-01 0.629D-01-0.279D+00 0.123D+01
 Coeff:     -0.112D-02 0.254D-02-0.144D-01 0.629D-01-0.279D+00 0.123D+01
 Gap=     1.289 Goal=   None    Shift=    0.000
 Gap=     0.337 Goal=   None    Shift=    0.000
 RMSDP=1.49D-06 MaxDP=1.95D-05 DE=-4.85D-08 OVMax= 3.52D-06

 Initial convergence to 1.0D-05 achieved.  Increase integral accuracy.
 Cycle   7  Pass 1  IDiag  1:
 Density matrix breaks symmetry, PCut= 1.00D-04
 Density has only Abelian symmetry.
 E= -74.9766636588775     Delta-E=       -0.000009169481 Rises=F Damp=F
 DIIS: error= 1.28D-05 at cycle   1 NSaved=   1.
 NSaved= 1 IEnMin= 1 EnMin= -74.9766636588775     IErMin= 1 ErrMin= 1.28D-05
 ErrMax= 1.28D-05  0.00D+00 EMaxC= 1.00D-01 BMatC= 5.50D-09 BMatP= 5.50D-09
 IDIUse=1 WtCom= 1.00D+00 WtEn= 0.00D+00
 Coeff-Com:  0.100D+01
 Coeff:      0.100D+01
 Gap=     1.289 Goal=   None    Shift=    0.000
 Gap=     0.337 Goal=   None    Shift=    0.000
 RMSDP=1.49D-06 MaxDP=1.95D-05 DE=-9.17D-06 OVMax= 5.46D-06

 Cycle   8  Pass 1  IDiag  1:
 Density matrix breaks symmetry, PCut= 1.00D-04
 Density has only Abelian symmetry.
 E= -74.9766636595161     Delta-E=       -0.000000000639 Rises=F Damp=F
 DIIS: error= 1.73D-06 at cycle   2 NSaved=   2.
 NSaved= 2 IEnMin= 2 EnMin= -74.9766636595161     IErMin= 2 ErrMin= 1.73D-06
 ErrMax= 1.73D-06  0.00D+00 EMaxC= 1.00D-01 BMatC= 8.40D-11 BMatP= 5.50D-09
 IDIUse=1 WtCom= 1.00D+00 WtEn= 0.00D+00
 Coeff-Com: -0.469D-01 0.105D+01
 Coeff:     -0.469D-01 0.105D+01
 Gap=     1.289 Goal=   None    Shift=    0.000
 Gap=     0.337 Goal=   None    Shift=    0.000
 RMSDP=4.15D-07 MaxDP=3.26D-06 DE=-6.39D-10 OVMax= 1.44D-06

 Cycle   9  Pass 1  IDiag  1:
 Density matrix breaks symmetry, PCut= 1.00D-04
 Density has only Abelian symmetry.
 E= -74.9766636595457     Delta-E=       -0.000000000030 Rises=F Damp=F
 DIIS: error= 9.58D-07 at cycle   3 NSaved=   3.
 NSaved= 3 IEnMin= 3 EnMin= -74.9766636595457     IErMin= 3 ErrMin= 9.58D-07
 ErrMax= 9.58D-07  0.00D+00 EMaxC= 1.00D-01 BMatC= 9.09D-12 BMatP= 8.40D-11
 IDIUse=1 WtCom= 1.00D+00 WtEn= 0.00D+00
 Coeff-Com: -0.160D-01 0.973D-01 0.919D+00
 Coeff:     -0.160D-01 0.973D-01 0.919D+00
 Gap=     1.289 Goal=   None    Shift=    0.000
 Gap=     0.337 Goal=   None    Shift=    0.000
 RMSDP=1.21D-07 MaxDP=1.62D-06 DE=-2.96D-11 OVMax= 3.36D-07

 Cycle  10  Pass 1  IDiag  1:
 Density matrix breaks symmetry, PCut= 1.00D-04
 Density has only Abelian symmetry.
 E= -74.9766636595485     Delta-E=       -0.000000000003 Rises=F Damp=F
 DIIS: error= 2.28D-07 at cycle   4 NSaved=   4.
 NSaved= 4 IEnMin= 4 EnMin= -74.9766636595485     IErMin= 4 ErrMin= 2.28D-07
 ErrMax= 2.28D-07  0.00D+00 EMaxC= 1.00D-01 BMatC= 1.22D-12 BMatP= 9.09D-12
 IDIUse=1 WtCom= 1.00D+00 WtEn= 0.00D+00
 Coeff-Com:  0.513D-02-0.122D+00 0.984D-01 0.102D+01
 Coeff:      0.513D-02-0.122D+00 0.984D-01 0.102D+01
 Gap=     1.289 Goal=   None    Shift=    0.000
 Gap=     0.337 Goal=   None    Shift=    0.000
 RMSDP=4.91D-08 MaxDP=3.98D-07 DE=-2.84D-12 OVMax= 1.55D-07

 Cycle  11  Pass 1  IDiag  1:
 Density matrix breaks symmetry, PCut= 1.00D-04
 Density has only Abelian symmetry.
 E= -74.9766636595489     Delta-E=       -0.000000000000 Rises=F Damp=F
 DIIS: error= 2.72D-08 at cycle   5 NSaved=   5.
 NSaved= 5 IEnMin= 5 EnMin= -74.9766636595489     IErMin= 5 ErrMin= 2.72D-08
 ErrMax= 2.72D-08  0.00D+00 EMaxC= 1.00D-01 BMatC= 1.44D-14 BMatP= 1.22D-12
 IDIUse=1 WtCom= 1.00D+00 WtEn= 0.00D+00
 Coeff-Com: -0.649D-03 0.249D-01-0.523D-01-0.206D+00 0.123D+01
 Coeff:     -0.649D-03 0.249D-01-0.523D-01-0.206D+00 0.123D+01
 Gap=     1.289 Goal=   None    Shift=    0.000
 Gap=     0.337 Goal=   None    Shift=    0.000
 RMSDP=7.58D-09 MaxDP=8.44D-08 DE=-3.69D-13 OVMax= 4.24D-08

 Density matrix breaks symmetry, PCut= 1.00D-04
 Density has only Abelian symmetry.
 SCF Done:  E(UwB97XD) =  -74.9766636595     A.U. after   11 cycles
            NFock= 11  Conv=0.76D-08     -V/T= 2.0040
 <Sx>= 0.0000 <Sy>= 0.0000 <Sz>= 1.0000 <S**2>= 2.0030 S= 1.0010
 <L.S>=  0.00000000000    
 KE= 7.467797282779D+01 PE=-1.778723176497D+02 EE= 2.821768116234D+01
 Annihilation of the first spin contaminant:
 S**2 before annihilation     2.0030,   after     2.0000
 Leave Link  502 at Mon Feb 17 19:42:23 2025, MaxMem=   104857600 cpu:               0.9 elap:               0.4
 (Enter /software/gaussian/G16-C.01/avx2/g16/l601.exe)
 Copying SCF densities to generalized density rwf, IOpCl= 1 IROHF=0.
 SCF density gives NOpUse=  8 NOpAll= 48.
 Marking SCF density as not fully symmetric.

 **********************************************************************

            Population analysis using the SCF Density.

 **********************************************************************

 Orbital symmetries:
 Alpha Orbitals:
       Occupied  (A1G) (?A) (?B) (?B) (?B)
       Virtual   (?A) (?B) (?B) (?B) (T2G) (?A) (T2G) (T2G) (?A)
 Beta  Orbitals:
       Occupied  (A1G) (?A) (?B)
       Virtual   (?B) (?B) (?A) (?B) (?B) (?B) (T2G) (T2G) (?A)
                 (?A) (T2G)
 Unable to determine electronic state:  an orbital has unidentified symmetry.
 Alpha  occ. eigenvalues --  -19.38615  -1.08967  -0.53698  -0.53698  -0.46272
 Alpha virt. eigenvalues --    0.82657   0.92153   0.92153   0.96178   2.55152
 Alpha virt. eigenvalues --    2.55152   2.60941   2.60941   2.63068
  Beta  occ. eigenvalues --  -19.34070  -0.91875  -0.40468
  Beta virt. eigenvalues --   -0.06801  -0.06801   0.89524   0.99262   1.04356
  Beta virt. eigenvalues --    1.04356   2.71194   2.71194   2.71579   2.73540
  Beta virt. eigenvalues --    2.73540
     Alpha Molecular Orbital Coefficients:
                           1         2         3         4         5
                       (A1G)--O      O         O         O         O
     Eigenvalues --   -19.38615  -1.08967  -0.53698  -0.53698  -0.46272
   1 1   O  1S          0.98923   0.32043   0.00000   0.00000   0.00000
   2        2S         -0.03607   0.67343   0.00000   0.00000   0.00000
   3        3S          0.01242   0.42653   0.00000   0.00000   0.00000
   4        4PX         0.00000   0.00000   0.00000   0.00000   0.68837
   5        4PY         0.00000   0.00000   0.00000   0.70881   0.00000
   6        4PZ         0.00000   0.00000   0.70881   0.00000   0.00000
   7        5PX         0.00000   0.00000   0.00000   0.00000   0.45786
   8        5PY         0.00000   0.00000   0.00000   0.43418   0.00000
   9        5PZ         0.00000   0.00000   0.43418   0.00000   0.00000
  10        6D 0       -0.00013   0.00840   0.00000   0.00000   0.00000
  11        6D+1        0.00000   0.00000   0.00000   0.00000   0.00000
  12        6D-1        0.00000   0.00000   0.00000   0.00000   0.00000
  13        6D+2        0.00023  -0.01455   0.00000   0.00000   0.00000
  14        6D-2        0.00000   0.00000   0.00000   0.00000   0.00000
                           6         7         8         9        10
                           V         V         V         V     (T2G)--V
     Eigenvalues --     0.82657   0.92153   0.92153   0.96178   2.55152
   1 1   O  1S          0.31403   0.00000   0.00000   0.00000   0.00000
   2        2S          1.60990   0.00000   0.00000   0.00000   0.00000
   3        3S         -1.60408   0.00000   0.00000   0.00000   0.00000
   4        4PX         0.00000   0.00000   0.00000  -0.92915   0.00000
   5        4PY         0.00000  -0.91364   0.00000   0.00000   0.00000
   6        4PZ         0.00000   0.00000  -0.91364   0.00000   0.00000
   7        5PX         0.00000   0.00000   0.00000   1.06185   0.00000
   8        5PY         0.00000   1.07175   0.00000   0.00000   0.00000
   9        5PZ         0.00000   0.00000   1.07175   0.00000   0.00000
  10        6D 0        0.00387   0.00000   0.00000   0.00000   0.00000
  11        6D+1        0.00000   0.00000   0.00000   0.00000   0.00000
  12        6D-1        0.00000   0.00000   0.00000   0.00000   1.00000
  13        6D+2       -0.00670   0.00000   0.00000   0.00000   0.00000
  14        6D-2        0.00000   0.00000   0.00000   0.00000   0.00000
                          11        12        13        14
                           V     (T2G)--V  (T2G)--V      V
     Eigenvalues --     2.55152   2.60941   2.60941   2.63068
   1 1   O  1S          0.00000   0.00000   0.00000   0.00755
   2        2S          0.00000   0.00000   0.00000   0.02378
   3        3S         -0.00000   0.00000   0.00000  -0.00525
   4        4PX         0.00000   0.00000   0.00000   0.00000
   5        4PY         0.00000   0.00000   0.00000   0.00000
   6        4PZ         0.00000   0.00000   0.00000   0.00000
   7        5PX         0.00000   0.00000   0.00000   0.00000
   8        5PY         0.00000   0.00000   0.00000   0.00000
   9        5PZ         0.00000   0.00000   0.00000   0.00000
  10        6D 0        0.86603   0.00000   0.00000  -0.49991
  11        6D+1        0.00000   0.00000   1.00000   0.00000
  12        6D-1        0.00000   0.00000   0.00000   0.00000
  13        6D+2        0.50000   0.00000   0.00000   0.86588
  14        6D-2        0.00000   1.00000   0.00000   0.00000
     Beta Molecular Orbital Coefficients:
                           1         2         3         4         5
                       (A1G)--O      O         O         V         V
     Eigenvalues --   -19.34070  -0.91875  -0.40468  -0.06801  -0.06801
   1 1   O  1S          0.99032   0.30575   0.00000   0.00000   0.00000
   2        2S         -0.03249   0.60914   0.00000   0.00000   0.00000
   3        3S          0.01113   0.48988   0.00000   0.00000   0.00000
   4        4PX         0.00000   0.00000   0.66216   0.00000   0.00000
   5        4PY         0.00000   0.00000   0.00000   0.00000   0.60084
   6        4PZ         0.00000   0.00000   0.00000   0.60084   0.00000
   7        5PX         0.00000   0.00000   0.48732   0.00000   0.00000
   8        5PY         0.00000   0.00000   0.00000   0.00000   0.55270
   9        5PZ         0.00000   0.00000   0.00000   0.55270   0.00000
  10        6D 0        0.00023  -0.00445   0.00000   0.00000   0.00000
  11        6D+1        0.00000   0.00000   0.00000   0.00000   0.00000
  12        6D-1        0.00000   0.00000   0.00000   0.00000   0.00000
  13        6D+2       -0.00039   0.00771   0.00000   0.00000   0.00000
  14        6D-2        0.00000   0.00000   0.00000   0.00000   0.00000
                           6         7         8         9        10
                           V         V         V         V     (T2G)--V
     Eigenvalues --     0.89524   0.99262   1.04356   1.04356   2.71194
   1 1   O  1S          0.32510   0.00000   0.00000   0.00000   0.00000
   2        2S          1.63544   0.00000   0.00000   0.00000   0.00000
   3        3S         -1.58587   0.00000   0.00000   0.00000   0.00000
   4        4PX         0.00000  -0.94800   0.00000   0.00000   0.00000
   5        4PY         0.00000   0.00000  -0.98800   0.00000   0.00000
   6        4PZ         0.00000   0.00000   0.00000  -0.98800   0.00000
   7        5PX         0.00000   1.04865   0.00000   0.00000   0.00000
   8        5PY         0.00000   0.00000   1.01571   0.00000   0.00000
   9        5PZ         0.00000   0.00000   0.00000   1.01571   0.00000
  10        6D 0       -0.00438   0.00000   0.00000   0.00000   0.00000
  11        6D+1        0.00000   0.00000   0.00000   0.00000   0.00000
  12        6D-1        0.00000   0.00000   0.00000   0.00000   0.00000
  13        6D+2        0.00758   0.00000   0.00000   0.00000   0.00000
  14        6D-2        0.00000   0.00000   0.00000   0.00000   1.00000
                          11        12        13        14
                       (T2G)--V      V         V     (T2G)--V
     Eigenvalues --     2.71194   2.71579   2.73540   2.73540
   1 1   O  1S          0.00000  -0.00512   0.00000   0.00000
   2        2S          0.00000  -0.01975   0.00000   0.00000
   3        3S          0.00000   0.00952  -0.00000   0.00000
   4        4PX         0.00000   0.00000   0.00000   0.00000
   5        4PY         0.00000   0.00000   0.00000   0.00000
   6        4PZ         0.00000   0.00000   0.00000   0.00000
   7        5PX         0.00000   0.00000   0.00000   0.00000
   8        5PY         0.00000   0.00000   0.00000   0.00000
   9        5PZ         0.00000   0.00000   0.00000   0.00000
  10        6D 0        0.00000  -0.49996   0.86603   0.00000
  11        6D+1        1.00000   0.00000   0.00000   0.00000
  12        6D-1        0.00000   0.00000   0.00000   1.00000
  13        6D+2        0.00000   0.86596   0.50000   0.00000
  14        6D-2        0.00000   0.00000   0.00000   0.00000
     Alpha Density Matrix:
                           1         2         3         4         5
   1 1   O  1S          1.08125
   2        2S          0.18010   0.45481
   3        3S          0.14896   0.28679   0.18208
   4        4PX         0.00000   0.00000   0.00000   0.47385
   5        4PY         0.00000   0.00000   0.00000  -0.00000   0.50242
   6        4PZ         0.00000   0.00000   0.00000   0.00000  -0.00000
   7        5PX         0.00000   0.00000   0.00000   0.31517   0.00000
   8        5PY         0.00000   0.00000   0.00000   0.00000   0.30775
   9        5PZ         0.00000   0.00000   0.00000  -0.00000  -0.00000
  10        6D 0        0.00256   0.00566   0.00358   0.00000   0.00000
  11        6D+1        0.00000   0.00000   0.00000   0.00000   0.00000
  12        6D-1       -0.00000   0.00000   0.00000   0.00000   0.00000
  13        6D+2       -0.00443  -0.00980  -0.00620   0.00000   0.00000
  14        6D-2       -0.00000  -0.00000  -0.00000   0.00000   0.00000
                           6         7         8         9        10
   6        4PZ         0.50242
   7        5PX        -0.00000   0.20963
   8        5PY        -0.00000   0.00000   0.18851
   9        5PZ         0.30775  -0.00000  -0.00000   0.18851
  10        6D 0        0.00000   0.00000   0.00000   0.00000   0.00007
  11        6D+1        0.00000   0.00000   0.00000   0.00000   0.00000
  12        6D-1        0.00000   0.00000   0.00000   0.00000   0.00000
  13        6D+2        0.00000   0.00000   0.00000   0.00000  -0.00012
  14        6D-2        0.00000   0.00000   0.00000   0.00000  -0.00000
                          11        12        13        14
  11        6D+1        0.00000
  12        6D-1        0.00000   0.00000
  13        6D+2       -0.00000  -0.00000   0.00021
  14        6D-2        0.00000   0.00000   0.00000   0.00000
     Beta Density Matrix:
                           1         2         3         4         5
   1 1   O  1S          1.07421
   2        2S          0.15407   0.37210
   3        3S          0.16080   0.29804   0.24010
   4        4PX         0.00000   0.00000   0.00000   0.43845
   5        4PY         0.00000   0.00000   0.00000   0.00000   0.00000
   6        4PZ         0.00000   0.00000   0.00000  -0.00000   0.00000
   7        5PX         0.00000   0.00000   0.00000   0.32268   0.00000
   8        5PY         0.00000   0.00000   0.00000   0.00000   0.00000
   9        5PZ         0.00000   0.00000   0.00000  -0.00000   0.00000
  10        6D 0       -0.00114  -0.00272  -0.00218   0.00000   0.00000
  11        6D+1       -0.00000  -0.00000  -0.00000   0.00000   0.00000
  12        6D-1       -0.00000   0.00000   0.00000   0.00000   0.00000
  13        6D+2        0.00197   0.00471   0.00377   0.00000   0.00000
  14        6D-2        0.00000   0.00000   0.00000   0.00000   0.00000
                           6         7         8         9        10
   6        4PZ         0.00000
   7        5PX        -0.00000   0.23748
   8        5PY         0.00000   0.00000   0.00000
   9        5PZ         0.00000  -0.00000   0.00000   0.00000
  10        6D 0        0.00000   0.00000   0.00000   0.00000   0.00002
  11        6D+1        0.00000   0.00000   0.00000   0.00000   0.00000
  12        6D-1        0.00000   0.00000   0.00000   0.00000  -0.00000
  13        6D+2        0.00000   0.00000   0.00000   0.00000  -0.00003
  14        6D-2        0.00000   0.00000   0.00000   0.00000  -0.00000
                          11        12        13        14
  11        6D+1        0.00000
  12        6D-1        0.00000  -0.00000
  13        6D+2       -0.00000   0.00000   0.00006
  14        6D-2        0.00000   0.00000   0.00000   0.00000
    Full Mulliken population analysis:
                           1         2         3         4         5
   1 1   O  1S          2.15547
   2        2S         -0.11496   0.82691
   3        3S         -0.04890   0.46140   0.42219
   4        4PX         0.00000   0.00000   0.00000   0.91230
   5        4PY         0.00000   0.00000   0.00000   0.00000   0.50242
   6        4PZ         0.00000   0.00000   0.00000   0.00000  -0.00000
   7        5PX         0.00000   0.00000   0.00000   0.32029  -0.00000
   8        5PY         0.00000   0.00000   0.00000  -0.00000   0.15454
   9        5PZ         0.00000   0.00000   0.00000   0.00000  -0.00000
  10        6D 0       -0.00000   0.00000   0.00000   0.00000   0.00000
  11        6D+1        0.00000  -0.00000  -0.00000   0.00000   0.00000
  12        6D-1        0.00000   0.00000   0.00000   0.00000   0.00000
  13        6D+2       -0.00000  -0.00000   0.00000   0.00000   0.00000
  14        6D-2        0.00000   0.00000   0.00000   0.00000   0.00000
                           6         7         8         9        10
   6        4PZ         0.50242
   7        5PX        -0.00000   0.44712
   8        5PY        -0.00000  -0.00000   0.18851
   9        5PZ         0.15454   0.00000  -0.00000   0.18851
  10        6D 0        0.00000   0.00000   0.00000   0.00000   0.00009
  11        6D+1        0.00000   0.00000   0.00000   0.00000  -0.00000
  12        6D-1        0.00000   0.00000   0.00000   0.00000   0.00000
  13        6D+2        0.00000   0.00000   0.00000   0.00000   0.00000
  14        6D-2        0.00000   0.00000   0.00000   0.00000  -0.00000
                          11        12        13        14
  11        6D+1        0.00000
  12        6D-1        0.00000   0.00000
  13        6D+2       -0.00000   0.00000   0.00027
  14        6D-2        0.00000   0.00000  -0.00000   0.00000
     Gross orbital populations:
                         Total     Alpha     Beta      Spin
   1 1   O  1S          1.99161   0.99578   0.99583  -0.00005
   2        2S          1.17335   0.61911   0.55424   0.06487
   3        3S          0.83469   0.38483   0.44986  -0.06503
   4        4PX         1.23259   0.63211   0.60048   0.03162
   5        4PY         0.65695   0.65695   0.00000   0.65695
   6        4PZ         0.65695   0.65695   0.00000   0.65695
   7        5PX         0.76741   0.36789   0.39952  -0.03162
   8        5PY         0.34305   0.34305   0.00000   0.34305
   9        5PZ         0.34305   0.34305   0.00000   0.34305
  10        6D 0        0.00009   0.00007   0.00002   0.00005
  11        6D+1        0.00000   0.00000   0.00000   0.00000
  12        6D-1        0.00000   0.00000  -0.00000   0.00000
  13        6D+2        0.00027   0.00021   0.00006   0.00015
  14        6D-2        0.00000   0.00000   0.00000   0.00000
          Condensed to atoms (all electrons):
               1
     1  O    8.000000
          Atomic-Atomic Spin Densities.
               1
     1  O    2.000000
 Mulliken charges and spin densities:
               1          2
     1  O   -0.000000   2.000000
 Sum of Mulliken charges =  -0.00000   2.00000
 Mulliken charges and spin densities with hydrogens summed into heavy atoms:
               1          2
     1  O   -0.000000   2.000000
 Electronic spatial extent (au):  <R**2>=             10.8995
 Charge=             -0.0000 electrons
 Dipole moment (field-independent basis, Debye):
    X=              0.0000    Y=              0.0000    Z=              0.0000  Tot=              0.0000
 Quadrupole moment (field-independent basis, Debye-Ang):
   XX=             -5.6285   YY=             -4.5159   ZZ=             -4.5159
   XY=             -0.0000   XZ=              0.0000   YZ=             -0.0000
 Traceless Quadrupole moment (field-independent basis, Debye-Ang):
   XX=             -0.7417   YY=              0.3709   ZZ=              0.3709
   XY=             -0.0000   XZ=              0.0000   YZ=             -0.0000
 Octapole moment (field-independent basis, Debye-Ang**2):
  XXX=              0.0000  YYY=              0.0000  ZZZ=              0.0000  XYY=              0.0000
  XXY=              0.0000  XXZ=              0.0000  XZZ=              0.0000  YZZ=              0.0000
  YYZ=              0.0000  XYZ=              0.0000
 Hexadecapole moment (field-independent basis, Debye-Ang**3):
 XXXX=             -3.9548 YYYY=             -2.7498 ZZZZ=             -2.7498 XXXY=             -0.0000
 XXXZ=              0.0000 YYYX=             -0.0000 YYYZ=              0.0000 ZZZX=              0.0000
 ZZZY=              0.0000 XXYY=             -1.1174 XXZZ=             -1.1174 YYZZ=             -0.9166
 XXYZ=              0.0000 YYXZ=              0.0000 ZZXY=             -0.0000
 N-N= 0.000000000000D+00 E-N=-1.778723177607D+02  KE= 7.467797282779D+01
 Symmetry AG   KE= 6.439608882035D+01
 Symmetry B1G  KE= 8.542575564738D-36
 Symmetry B2G  KE= 8.542575564738D-36
 Symmetry B3G  KE= 6.381945017902D-52
 Symmetry AU   KE= 0.000000000000D+00
 Symmetry B1U  KE= 2.652316085655D+00
 Symmetry B2U  KE= 2.652316085655D+00
 Symmetry B3U  KE= 4.977251836134D+00
 Symmetry AG   SP= 2.603819937441D-15
 Symmetry B1G  SP= 1.140282831483D-36
 Symmetry B2G  SP= 1.140282831483D-36
 Symmetry B3G  SP= 1.697051458712D-52
 Symmetry AU   SP= 0.000000000000D+00
 Symmetry B1U  SP= 1.000000000000D+00
 Symmetry B2U  SP= 1.000000000000D+00
 Symmetry B3U  SP=-3.627228841080D-16
 Orbital energies and kinetic energies (alpha):
                                 1                 2
   1         (A1G)--O        -19.386149         28.780929
   2         O                -1.089669          3.536240
   3         O                -0.536978          2.652316
   4         O                -0.536978          2.652316
   5         O                -0.462719          2.551462
   6         V                 0.826573          3.997676
   7         V                 0.921532          3.311119
   8         V                 0.921532          3.311119
   9         V                 0.961779          3.411973
  10         (T2G)--V          2.551518          4.200000
  11         V                 2.551518          4.200000
  12         (T2G)--V          2.609414          4.200000
  13         (T2G)--V          2.609414          4.200000
  14         V                 2.630682          4.200551
 Orbital energies and kinetic energies (beta):
                                 1                 2
   1         (A1G)--O        -19.340696         28.838869
   2         O                -0.918748          3.240051
   3         O                -0.404683          2.425790
   4         V                -0.068007          2.147831
   5         V                -0.068007          2.147831
   6         V                 0.895243          4.236170
   7         V                 0.992621          3.537645
   8         V                 1.043563          3.815603
   9         V                 1.043563          3.815603
  10         (T2G)--V          2.711939          4.200000
  11         (T2G)--V          2.711939          4.200000
  12         V                 2.715785          4.200305
  13         V                 2.735396          4.200000
  14         (T2G)--V          2.735400          4.200000
 Total kinetic energy from orbitals= 7.467797282779D+01
                          Isotropic Fermi Contact Couplings
        Atom                 a.u.       MegaHertz       Gauss      10(-4) cm-1
     1  O(17)              0.66465    -201.45491     -71.88412     -67.19812
 --------------------------------------------------------
       Center         ----  Spin Dipole Couplings  ----
                      3XX-RR        3YY-RR        3ZZ-RR
 --------------------------------------------------------
     1   Atom       -3.801375      1.900687      1.900687
 --------------------------------------------------------
                        XY            XZ            YZ
 --------------------------------------------------------
     1   Atom        0.000000      0.000000      0.000000
 --------------------------------------------------------


 ---------------------------------------------------------------------------------
              Anisotropic Spin Dipole Couplings in Principal Axis System
 ---------------------------------------------------------------------------------

       Atom             a.u.   MegaHertz   Gauss  10(-4) cm-1        Axes

              Baa    -3.8014   275.065    98.150    91.752  1.0000  0.0000  0.0000
     1 O(17)  Bbb     1.9007  -137.532   -49.075   -45.876  0.0000  0.0000  1.0000
              Bcc     1.9007  -137.532   -49.075   -45.876 -0.0000  1.0000  0.0000
 

 ---------------------------------------------------------------------------------

 No NMR shielding tensors so no spin-rotation constants.
 Leave Link  601 at Mon Feb 17 19:42:23 2025, MaxMem=   104857600 cpu:               0.6 elap:               0.3
 (Enter /software/gaussian/G16-C.01/avx2/g16/l9999.exe)
 Unable to Open any file for archive entry.
 1\1\GINC-LCMDLC3\SP\UwB97XD\def2SVP\O1(3)\STUDENT5\17-Feb-2025\0\\#p w
 B97XD/Def2SVP SP pop=full gfinput\\O 1\\0,3\O,0,0.,0.,0.\\Version=ES64
 L-G16RevC.01\HF=-74.9766637\S2=2.003017\S2-1=0.\S2A=2.000003\RMSD=7.58
 2e-09\Dipole=0.,0.,0.\Quadrupole=0.2757305,0.2757305,-0.551461,0.,0.,0
 .\PG=OH [O(O1)]\\@
 The archive entry for this job was punched.


 I DO NOT KNOW WHAT I MAY APPEAR TO THE WORLD; BUT TO MYSELF
 I SEEM TO HAVE BEEN ONLY LIKE A BOY PLAYING ON THE SEASHORE,
 AND DIVERTING MYSELF IN NOW AND THEN FINDING A SMOOTHER PEBBLE
 OR A PRETTIER SHELL THAN ORDINARY, WHILST THE GREAT OCEAN OF
 TRUTH LAY ALL UNDISCOVERED BEFORE ME.
                                          -- NEWTON (1642-1726)
 Job cpu time:       0 days  0 hours  0 minutes  3.3 seconds.
 Elapsed time:       0 days  0 hours  0 minutes  1.6 seconds.
 File lengths (MBytes):  RWF=      6 Int=      0 D2E=      0 Chk=      1 Scr=      1
 Normal termination of Gaussian 16 at Mon Feb 17 19:42:23 2025.
